LAMMPS (16 Mar 2018)

units		real
atom_style	atomic

pair_style	lj/cut 10

read_data          lammps.data
  orthogonal box = (-15 -15 -15) to (15 15 15)
  1 by 1 by 1 MPI processor grid
  reading atoms ...
  362 atoms
  reading velocities ...
  362 velocities

mass		    1 16.04
pair_coeff	    1 1 0.2941062068 3.730

neighbor	    4 bin
neigh_modify	every 1 delay 0

fix		        1 all nvt temp 150 150 100 tchain 1

dump 		    dump2 all custom 100 trj.lammps id type xu yu zu vx vy vz fx fy fz
dump_modify	    dump2 sort 1
dump_modify     dump2 append yes
dump_modify     dump2 format line "%8d %5d %.3f %.3f %.3f %.3e %.3e %.3e %.3e %.3e %.3e"

thermo		    100
thermo_style    custom step temp press ke pe etotal

timestep	    1
run		        10000
Neighbor list info ...
  update every 1 steps, delay 0 steps, check yes
  max neighbors/atom: 2000, page size: 100000
  master list distance cutoff = 14
  ghost atom cutoff = 14
  binsize = 7, bins = 5 5 5
  1 neighbor lists, perpetual/occasional/extra = 1 0 0
  (1) pair lj/cut, perpetual
      attributes: half, newton on
      pair build: half/bin/atomonly/newton
      stencil: half/bin/3d/newton
      bin: standard
Per MPI rank memory allocation (min/avg/max) = 4.154 | 4.154 | 4.154 Mbytes
Step Temp Press KinEng PotEng TotEng 
       0    150.41329    4155.5506     161.8556   -388.57739   -226.72179 
     100    154.96471    4218.2106    166.75325   -366.72246   -199.96921 
     200    272.66133    2686.2284    293.40334    -464.6845   -171.28116 
     300    131.03157    1220.0462    140.99946   -526.43118   -385.43171 
     400    74.675329    358.44218    80.356062   -563.14431   -482.78825 
     500    88.744111   -4.1525039    95.495091   -575.55863   -480.06354 
     600    166.11525    196.90971    178.75204   -555.74712   -376.99508 
     700    236.49612    712.10118    254.48696   -509.04751   -254.56055 
     800     156.4256    477.41714    168.32527   -499.25423   -330.92895 
     900    108.26889   -79.384857    116.50517   -520.72388   -404.21871 
    1000    104.09303   -208.22473    112.01164   -517.89765   -405.88601 
    1100    164.52303   -116.80966    177.03869   -511.70242   -334.66372 
    1200    195.74122    351.85255    210.63173   -480.97375   -270.34202 
    1300     161.6849    302.96074    173.98466   -480.39699   -306.41233 
    1400    125.35879     24.40966    134.89514    -494.9789   -360.08375 
    1500    122.57318   -86.361508    131.89762   -500.06553   -368.16791 
    1600    153.73603    15.604918     165.4311   -494.58878   -329.15768 
    1700    175.04106    342.82524    188.35686   -474.66797   -286.31112 
    1800    168.41474    347.15157    181.22646   -474.00999   -292.78353 
    1900    141.14083    103.36219    151.87775   -486.20671   -334.32896 
    2000    123.05747    40.276592    132.41875   -488.25375     -355.835 
    2100    147.50511    21.486217    158.72619   -492.72138    -333.9952 
    2200    168.79094    250.46602    181.63127   -480.08159   -298.45031 
    2300    164.73201    327.41416    177.26357   -477.76899   -300.50542 
    2400    144.28439    210.22899    155.26045   -486.26818   -331.00773 
    2500     132.6838    123.16151    142.77738   -489.88605   -347.10867 
    2600    147.11402    41.207154    158.30534   -493.36397   -335.05863 
    2700    157.60055    181.50507     169.5896   -484.36777   -314.77817 
    2800    165.45647    165.17649    178.04315   -487.18179   -309.13864 
    2900    144.86253    158.77253    155.88258   -484.91186   -329.02928 
    3000    134.71177     129.7859    144.95963   -486.16715   -341.20752 
    3100    144.67396    160.68098    155.67966   -483.06018   -327.38052 
    3200    163.96347    220.39073    176.43657   -479.05179   -302.61522 
    3300    154.62057    337.21818    166.38293   -469.89086   -303.50793 
    3400    149.29635    213.89183    160.65368   -478.91074   -318.25706 
    3500    142.11578    128.30671    152.92687   -484.04441   -331.11753 
    3600    144.75445    81.972681    155.76627   -486.28511   -330.51884 
    3700    153.10172    131.56478    164.74854   -484.60852   -319.85998 
    3800    158.95989     191.8777    171.05236   -482.09997   -311.04761 
    3900    156.00066    232.03644      167.868   -481.75977   -313.89177 
    4000    142.99317    270.16712    153.87101   -477.96864   -324.09763 
    4100    147.21827    181.01342    158.41752   -482.07129   -323.65377 
    4200     148.5304    236.10651    159.82947   -476.55137    -316.7219 
    4300    160.92428    186.79572    173.16618   -481.74003   -308.57384 
    4400    149.12261    227.38975    160.46673   -478.20152   -317.73479 
    4500    144.49259    138.69259    155.48449   -485.44076   -329.95627 
    4600    145.58044    105.52969    156.65509   -487.14917   -330.49407 
    4700    147.58316     216.9791    158.81017   -479.69366   -320.88349 
    4800    158.78249    216.68307    170.86145   -482.06786    -311.2064 
    4900    154.87299    231.73672    166.65456   -480.59914   -313.94458 
    5000    141.86239    300.65737    152.65421   -474.47106   -321.81685 
    5100    154.99046     144.9756    166.78097   -485.51163   -318.73067 
    5200    153.98961    69.380629    165.70398   -487.98283   -322.27885 
    5300    143.66407    65.001192    154.59295   -488.77425    -334.1813 
    5400    138.84509    151.56047    149.40737   -483.23754   -333.83017 
    5500    156.62656    118.52852    168.54152   -487.74295   -319.20143 
    5600    155.19926     143.1916    167.00564   -484.16321   -317.15757 
    5700    152.55595    46.316603    164.16126    -489.2251   -325.06384 
    5800    142.27741    102.73711    153.10079   -484.40025   -331.29945 
    5900    142.31753    189.02089    153.14397   -477.54817    -324.4042 
    6000    162.80276    138.27184    175.18756   -484.90529   -309.71772 
    6100    152.87973    135.91237    164.50966    -484.1526   -319.64294 
    6200    139.65673    136.98905    150.28076   -482.99579   -332.71504 
    6300    147.68302    136.40942    158.91762   -483.58638   -324.66875 
    6400    158.43496    229.05534    170.48749   -479.37213   -308.88464 
    6500    156.86892    279.01791    168.80232   -478.46958   -309.66726 
    6600    145.23316    275.51918     156.2814   -479.84487   -323.56347 
    6700     145.7439    202.36734    156.83099   -484.86879    -328.0378 
    6800    150.92442    169.41222    162.40561    -487.3987   -324.99309 
    6900     154.1923    112.51681    165.92208   -490.23444   -324.31236 
    7000    146.28825    163.93158    157.41676   -486.37589   -328.95913 
    7100    146.78027      192.192     157.9462   -484.63651   -326.69031 
    7200    153.44301    186.73019    165.11579   -485.98023   -320.86444 
    7300    150.41347    194.61954    161.85578    -484.1093   -322.25352 
    7400    148.44901    124.77798    159.74189   -487.88042   -328.13853 
    7500    148.35069    104.98067    159.63609   -491.10011   -331.46402 
    7600    148.56111    181.47633    159.86251   -487.28102   -327.41851 
    7700    151.30116    220.10349      162.811   -484.76466   -321.95365 
    7800    147.62554     238.1741    158.85577   -482.49379   -323.63802 
    7900    153.24537    177.97395    164.90311   -487.24026   -322.33714 
    8000    147.97124    230.65452    159.22777   -481.76703   -322.53926 
    8100    150.74917    172.30575    162.21702   -485.39735   -323.18033 
    8200    143.72797    248.66335    154.66171   -479.07186   -324.41016 
    8300     152.1621    212.47497    163.73744   -483.33494    -319.5975 
    8400    158.04397    173.69193    170.06676   -487.49741   -317.43065 
    8500    144.76933     176.8059    155.78228   -482.14325   -326.36097 
    8600    144.13441    103.50576    155.09907   -487.14269   -332.04362 
    8700    149.99228    85.380058    161.40255   -490.82792   -329.42536 
    8800    150.30358    193.13638    161.73754   -485.67182   -323.93429 
    8900    153.76547    263.93354    165.46278   -483.95133   -318.48855 
    9000    150.56366     318.4869     162.0174   -479.06596   -317.04856 
    9100     152.8061    207.84814    164.43043   -485.02415   -320.59371 
    9200    143.32925    227.48696    154.23265   -480.98214   -326.74948 
    9300    153.12713    163.79448    164.77589   -485.49976   -320.72387 
    9400    156.44313    113.22224    168.34414   -489.18383   -320.83969 
    9500    137.72319    218.91266    148.20013   -478.11529   -329.91517 
    9600    152.72914    142.08732    164.34762   -483.01522   -318.66761 
    9700    160.88235    141.05346    173.12106   -483.20797    -310.0869 
    9800    151.91834    108.61103    163.47514   -487.18914     -323.714 
    9900    141.92293    75.871313    152.71935   -488.93351   -336.21416 
   10000    143.13624    91.392206    154.02496   -487.24945   -333.22449 
Loop time of 2.5258 on 1 procs for 10000 steps with 362 atoms

Performance: 342.069 ns/day, 0.070 hours/ns, 3959.136 timesteps/s
99.7% CPU use with 1 MPI tasks x no OpenMP threads

MPI task timing breakdown:
Section |  min time  |  avg time  |  max time  |%varavg| %total
---------------------------------------------------------------
Pair    | 2.2456     | 2.2456     | 2.2456     |   0.0 | 88.91
Neigh   | 0.029926   | 0.029926   | 0.029926   |   0.0 |  1.18
Comm    | 0.087012   | 0.087012   | 0.087012   |   0.0 |  3.44
Output  | 0.083796   | 0.083796   | 0.083796   |   0.0 |  3.32
Modify  | 0.053398   | 0.053398   | 0.053398   |   0.0 |  2.11
Other   |            | 0.02607    |            |       |  1.03

Nlocal:    362 ave 362 max 362 min
Histogram: 1 0 0 0 0 0 0 0 0 0
Nghost:    2238 ave 2238 max 2238 min
Histogram: 1 0 0 0 0 0 0 0 0 0
Neighs:    27707 ave 27707 max 27707 min
Histogram: 1 0 0 0 0 0 0 0 0 0

Total # of neighbors = 27707
Ave neighs/atom = 76.5387
Neighbor list builds = 47
Dangerous builds = 0

Total wall time: 0:00:02
