ITEM: TIMESTEP
0
ITEM: NUMBER OF ATOMS
362
ITEM: BOX BOUNDS pp pp pp
-1.5000000000000000e+01 1.5000000000000000e+01
-1.5000000000000000e+01 1.5000000000000000e+01
-1.5000000000000000e+01 1.5000000000000000e+01
ITEM: ATOMS id type xu yu zu vx vy vz fx fy fz 
       1     1 -13.125 -13.125 -13.125 -1.900e-04 -4.880e-03 -1.160e-03 0.000e+00 3.747e-16 -1.208e+00 
       2     1 -9.375 -13.125 -13.125 -2.800e-03 -3.440e-03 -2.000e-03 0.000e+00 2.220e-16 -1.208e+00 
       3     1 -5.625 -13.125 -13.125 2.690e-03 8.800e-04 3.190e-03 -3.404e-16 4.441e-16 -1.208e+00 
       4     1 -1.875 -13.125 -13.125 -5.950e-03 -1.300e-03 4.000e-04 -9.931e-17 2.220e-16 -1.208e+00 
       5     1 1.875 -13.125 -13.125 1.460e-03 -4.090e-03 -2.470e-03 -3.404e-16 4.441e-16 -1.208e+00 
       6     1 5.625 -13.125 -13.125 8.000e-05 2.800e-04 5.270e-03 -9.931e-17 2.220e-16 -1.208e+00 
       7     1 9.375 -13.125 -13.125 -7.400e-04 1.300e-03 1.620e-03 -3.417e-16 5.187e-16 -1.208e+00 
       8     1 13.125 -13.125 -13.125 -1.270e-03 -2.520e-03 3.300e-03 -9.714e-17 4.580e-16 -1.208e+00 
       9     1 -13.125 -9.375 -13.125 2.100e-03 5.440e-03 1.790e-03 2.220e-16 1.665e-16 -1.208e+00 
      10     1 -9.375 -9.375 -13.125 -4.260e-03 1.360e-03 -2.260e-03 8.327e-17 -2.949e-17 -1.208e+00 
      11     1 -5.625 -9.375 -13.125 1.330e-03 -1.680e-03 1.890e-03 -1.258e-16 6.939e-17 -1.208e+00 
      12     1 -1.875 -9.375 -13.125 1.100e-04 2.600e-04 -4.190e-03 -1.648e-17 -1.041e-16 -1.208e+00 
      13     1 1.875 -9.375 -13.125 5.340e-03 -1.560e-03 1.540e-03 -1.258e-16 6.939e-17 -1.208e+00 
      14     1 5.625 -9.375 -13.125 2.810e-03 3.960e-03 -7.100e-03 -1.648e-17 -1.041e-16 -1.208e+00 
      15     1 9.375 -9.375 -13.125 7.000e-05 4.500e-03 1.260e-03 -1.258e-16 6.939e-17 -1.208e+00 
      16     1 13.125 -9.375 -13.125 3.520e-03 -4.410e-03 3.550e-03 -1.735e-17 -1.076e-16 -1.208e+00 
      17     1 -13.125 -5.625 -13.125 3.100e-04 -7.600e-04 2.960e-03 0.000e+00 -1.943e-16 -1.208e+00 
      18     1 -9.375 -5.625 -13.125 -2.690e-03 3.370e-03 -1.300e-03 -6.245e-17 -3.409e-16 -1.208e+00 
      19     1 -5.625 -5.625 -13.125 1.820e-03 -4.900e-04 -8.000e-04 -3.378e-16 -1.193e-16 -1.208e+00 
      20     1 -1.875 -5.625 -13.125 -1.000e-03 -2.100e-04 1.820e-03 -9.498e-17 -3.413e-16 -1.208e+00 
      21     1 1.875 -5.625 -13.125 1.210e-03 9.000e-05 -3.720e-03 -3.378e-16 -1.193e-16 -1.208e+00 
      22     1 5.625 -5.625 -13.125 -1.660e-03 -1.430e-03 1.000e-03 -9.498e-17 -3.413e-16 -1.208e+00 
      23     1 9.375 -5.625 -13.125 2.730e-03 8.100e-04 -6.300e-04 -2.619e-16 -4.424e-17 -1.208e+00 
      24     1 13.125 -5.625 -13.125 5.000e-04 6.400e-04 3.430e-03 8.327e-17 -1.249e-16 -1.208e+00 
      25     1 -13.125 -1.875 -13.125 2.690e-03 2.680e-03 1.350e-03 2.220e-16 5.551e-17 -1.208e+00 
      26     1 -9.375 -1.875 -13.125 4.290e-03 9.900e-04 -1.300e-03 8.327e-17 -5.378e-17 -1.208e+00 
      27     1 -5.625 -1.875 -13.125 2.680e-03 1.000e-05 -1.810e-03 -1.262e-16 2.641e-16 -1.208e+00 
      28     1 -1.875 -1.875 -13.125 -2.600e-04 3.900e-04 2.670e-03 -1.691e-17 -1.002e-16 -1.208e+00 
      29     1 1.875 -1.875 -13.125 5.900e-04 -2.200e-03 4.870e-03 -1.262e-16 2.641e-16 -1.208e+00 
      30     1 5.625 -1.875 -13.125 5.200e-04 -8.700e-04 -3.650e-03 -1.691e-17 -1.002e-16 -1.208e+00 
      31     1 9.375 -1.875 -13.125 1.980e-03 -2.100e-04 1.110e-03 -1.262e-16 2.641e-16 -1.208e+00 
      32     1 13.125 -1.875 -13.125 1.530e-03 8.800e-04 9.000e-05 1.301e-16 2.082e-17 -1.208e+00 
      33     1 -13.125 1.875 -13.125 -2.700e-04 1.360e-03 8.600e-04 0.000e+00 -1.943e-16 -1.208e+00 
      34     1 -9.375 1.875 -13.125 8.000e-05 -1.100e-04 3.240e-03 -6.245e-17 -3.409e-16 -1.208e+00 
      35     1 -5.625 1.875 -13.125 3.160e-03 1.680e-03 4.600e-03 -3.378e-16 -1.193e-16 -1.208e+00 
      36     1 -1.875 1.875 -13.125 -1.210e-03 8.000e-05 2.230e-03 -9.498e-17 -3.413e-16 -1.208e+00 
      37     1 1.875 1.875 -13.125 4.750e-03 4.490e-03 -4.260e-03 -3.378e-16 -1.193e-16 -1.208e+00 
      38     1 5.625 1.875 -13.125 -3.260e-03 -1.640e-03 4.550e-03 -9.498e-17 -3.413e-16 -1.208e+00 
      39     1 9.375 1.875 -13.125 1.680e-03 6.400e-03 -8.300e-04 -2.619e-16 -4.424e-17 -1.208e+00 
      40     1 13.125 1.875 -13.125 -2.730e-03 -1.710e-03 -2.020e-03 8.327e-17 -1.249e-16 -1.208e+00 
      41     1 -13.125 5.625 -13.125 1.500e-04 3.420e-03 -2.010e-03 2.220e-16 5.551e-17 -1.208e+00 
      42     1 -9.375 5.625 -13.125 7.400e-04 8.600e-04 -7.000e-05 8.327e-17 -5.378e-17 -1.208e+00 
      43     1 -5.625 5.625 -13.125 2.160e-03 4.000e-03 4.000e-03 -1.262e-16 2.641e-16 -1.208e+00 
      44     1 -1.875 5.625 -13.125 6.400e-04 -2.330e-03 1.210e-03 -1.691e-17 -1.002e-16 -1.208e+00 
      45     1 1.875 5.625 -13.125 5.500e-04 2.310e-03 2.330e-03 -1.262e-16 2.641e-16 -1.208e+00 
      46     1 5.625 5.625 -13.125 3.130e-03 3.340e-03 2.470e-03 -1.691e-17 -1.002e-16 -1.208e+00 
      47     1 9.375 5.625 -13.125 -2.170e-03 -2.680e-03 -3.300e-04 -1.262e-16 2.641e-16 -1.208e+00 
      48     1 13.125 5.625 -13.125 -1.720e-03 5.210e-03 1.590e-03 1.301e-16 2.082e-17 -1.208e+00 
      49     1 -13.125 9.375 -13.125 -8.700e-04 4.800e-03 -1.230e-03 0.000e+00 -1.943e-16 -1.208e+00 
      50     1 -9.375 9.375 -13.125 -2.000e-03 3.400e-04 3.300e-04 -6.245e-17 -3.409e-16 -1.208e+00 
      51     1 -5.625 9.375 -13.125 1.300e-03 -2.370e-03 -2.280e-03 -3.378e-16 -1.193e-16 -1.208e+00 
      52     1 -1.875 9.375 -13.125 -2.870e-03 -1.260e-03 1.730e-03 -9.498e-17 -3.413e-16 -1.208e+00 
      53     1 1.875 9.375 -13.125 -4.460e-03 -1.530e-03 -2.120e-03 -3.378e-16 -1.193e-16 -1.208e+00 
      54     1 5.625 9.375 -13.125 1.840e-03 1.250e-03 -3.500e-03 -9.498e-17 -3.413e-16 -1.208e+00 
      55     1 9.375 9.375 -13.125 -4.150e-03 2.030e-03 4.200e-04 -2.619e-16 -4.424e-17 -1.208e+00 
      56     1 13.125 9.375 -13.125 -4.850e-03 -1.940e-03 6.700e-04 8.327e-17 -1.249e-16 -1.208e+00 
      57     1 -13.125 13.125 -13.125 -1.190e-03 1.190e-03 -5.990e-03 2.220e-16 5.551e-17 -1.208e+00 
      58     1 -9.375 13.125 -13.125 1.870e-03 -3.020e-03 2.740e-03 8.327e-17 -5.378e-17 -1.208e+00 
      59     1 -5.625 13.125 -13.125 3.820e-03 2.180e-03 -1.070e-03 -1.262e-16 2.641e-16 -1.208e+00 
      60     1 -1.875 13.125 -13.125 -1.370e-03 -5.960e-03 -1.340e-03 -1.691e-17 -1.002e-16 -1.208e+00 
      61     1 1.875 13.125 -13.125 2.270e-03 -1.070e-03 1.390e-03 -1.262e-16 2.641e-16 -1.208e+00 
      62     1 5.625 13.125 -13.125 -3.670e-03 1.400e-04 1.060e-03 -1.691e-17 -1.002e-16 -1.208e+00 
      63     1 9.375 13.125 -13.125 3.620e-03 1.450e-03 -5.600e-03 -1.262e-16 2.641e-16 -1.208e+00 
      64     1 13.125 13.125 -13.125 -3.910e-03 4.670e-03 2.830e-03 1.301e-16 2.082e-17 -1.208e+00 
      65     1 -13.125 -13.125 -9.375 2.240e-03 -2.570e-03 4.880e-03 2.220e-16 5.967e-16 4.793e-02 
      66     1 -9.375 -13.125 -9.375 3.100e-03 -1.700e-03 -3.720e-03 1.527e-16 2.220e-16 4.793e-02 
      67     1 -5.625 -13.125 -9.375 -4.630e-03 3.190e-03 -4.130e-03 -7.980e-17 4.441e-16 4.793e-02 
      68     1 -1.875 -13.125 -9.375 -2.470e-03 -2.070e-03 -3.500e-04 2.771e-16 4.441e-16 4.793e-02 
      69     1 1.875 -13.125 -9.375 -3.600e-03 -3.800e-03 6.020e-03 -7.980e-17 4.441e-16 4.793e-02 
      70     1 5.625 -13.125 -9.375 3.760e-03 -2.800e-03 3.370e-03 2.771e-16 4.441e-16 4.793e-02 
      71     1 9.375 -13.125 -9.375 -4.280e-03 5.770e-03 1.390e-03 -7.980e-17 5.187e-16 4.793e-02 
      72     1 13.125 -13.125 -9.375 1.450e-03 -5.150e-03 -2.360e-03 2.776e-16 6.800e-16 4.793e-02 
      73     1 -13.125 -9.375 -9.375 2.740e-03 6.500e-04 2.540e-03 2.220e-16 2.914e-16 4.793e-02 
      74     1 -9.375 -9.375 -9.375 4.700e-04 -3.000e-04 1.460e-03 2.325e-16 1.162e-16 4.793e-02 
      75     1 -5.625 -9.375 -9.375 2.660e-03 -3.600e-04 -1.490e-03 -9.107e-17 2.429e-16 4.793e-02 
      76     1 -1.875 -9.375 -9.375 7.400e-04 -1.610e-03 -1.750e-03 1.514e-16 4.163e-17 4.793e-02 
      77     1 1.875 -9.375 -9.375 -4.420e-03 -1.850e-03 -8.000e-05 -9.107e-17 2.429e-16 4.793e-02 
      78     1 5.625 -9.375 -9.375 -1.790e-03 -3.320e-03 2.800e-04 1.514e-16 4.163e-17 4.793e-02 
      79     1 9.375 -9.375 -9.375 1.530e-03 -1.940e-03 -3.510e-03 -9.107e-17 2.429e-16 4.793e-02 
      80     1 13.125 -9.375 -9.375 3.020e-03 8.900e-04 -3.050e-03 1.509e-16 4.510e-17 4.793e-02 
      81     1 -13.125 -5.625 -9.375 5.000e-05 -7.300e-04 4.390e-03 2.220e-16 6.592e-17 4.793e-02 
      82     1 -9.375 -5.625 -9.375 -4.190e-03 -1.110e-03 -1.430e-03 7.633e-17 -3.422e-16 4.793e-02 
      83     1 -5.625 -5.625 -9.375 7.780e-03 5.550e-03 -5.160e-03 -8.413e-17 -8.587e-17 4.793e-02 
      84     1 -1.875 -5.625 -9.375 -3.900e-04 2.380e-03 1.800e-03 2.754e-16 -1.206e-16 4.793e-02 
      85     1 1.875 -5.625 -9.375 1.770e-03 -3.780e-03 -1.540e-03 -8.413e-17 -8.587e-17 4.793e-02 
      86     1 5.625 -5.625 -9.375 -8.200e-04 1.860e-03 -4.150e-03 2.754e-16 -1.206e-16 4.793e-02 
      87     1 9.375 -5.625 -9.375 2.400e-04 3.370e-03 6.900e-04 0.000e+00 -1.214e-17 4.793e-02 
      88     1 13.125 -5.625 -9.375 -2.550e-03 -4.500e-04 5.820e-03 1.388e-17 1.110e-16 4.793e-02 
      89     1 -13.125 -1.875 -9.375 2.470e-03 -1.300e-04 -9.200e-04 4.441e-16 4.441e-16 4.793e-02 
      90     1 -9.375 -1.875 -9.375 -2.220e-03 -8.600e-04 -1.730e-03 2.325e-16 8.674e-17 4.793e-02 
      91     1 -5.625 -1.875 -9.375 2.850e-03 -2.920e-03 -1.800e-04 -9.151e-17 2.160e-16 4.793e-02 
      92     1 -1.875 -1.875 -9.375 -1.230e-03 -3.240e-03 6.100e-04 1.509e-16 1.258e-17 4.793e-02 
      93     1 1.875 -1.875 -9.375 -5.150e-03 -1.050e-03 -1.490e-03 -9.151e-17 2.160e-16 4.793e-02 
      94     1 5.625 -1.875 -9.375 -1.130e-03 -8.700e-04 -1.140e-03 1.509e-16 1.258e-17 4.793e-02 
      95     1 9.375 -1.875 -9.375 2.150e-03 -3.060e-03 -7.700e-04 -9.151e-17 2.160e-16 4.793e-02 
      96     1 13.125 -1.875 -9.375 -8.700e-04 -1.800e-04 5.270e-03 2.984e-16 1.683e-16 4.793e-02 
      97     1 -13.125 1.875 -9.375 3.710e-03 -2.990e-03 -1.780e-03 2.220e-16 6.592e-17 4.793e-02 
      98     1 -9.375 1.875 -9.375 9.900e-04 5.070e-03 1.860e-03 7.633e-17 -3.422e-16 4.793e-02 
      99     1 -5.625 1.875 -9.375 6.100e-04 9.900e-04 5.360e-03 -8.413e-17 -8.587e-17 4.793e-02 
     100     1 -1.875 1.875 -9.375 -4.510e-03 4.380e-03 -5.500e-03 2.754e-16 -1.206e-16 4.793e-02 
     101     1 1.875 1.875 -9.375 -6.200e-04 -1.970e-03 -1.200e-04 -8.413e-17 -8.587e-17 4.793e-02 
     102     1 5.625 1.875 -9.375 3.600e-04 -2.620e-03 -1.550e-03 2.754e-16 -1.206e-16 4.793e-02 
     103     1 9.375 1.875 -9.375 2.110e-03 -4.380e-03 -2.800e-04 0.000e+00 -1.214e-17 4.793e-02 
     104     1 13.125 1.875 -9.375 -1.370e-03 -5.900e-04 5.710e-03 1.388e-17 1.110e-16 4.793e-02 
     105     1 -13.125 5.625 -9.375 1.300e-04 -4.930e-03 1.670e-03 4.441e-16 4.441e-16 4.793e-02 
     106     1 -9.375 5.625 -9.375 -3.550e-03 2.470e-03 3.840e-03 2.325e-16 8.674e-17 4.793e-02 
     107     1 -5.625 5.625 -9.375 6.500e-04 3.100e-03 -2.260e-03 -9.151e-17 2.160e-16 4.793e-02 
     108     1 -1.875 5.625 -9.375 -2.570e-03 -1.650e-03 -5.770e-03 1.509e-16 1.258e-17 4.793e-02 
     109     1 1.875 5.625 -9.375 4.190e-03 2.710e-03 -2.940e-03 -9.151e-17 2.160e-16 4.793e-02 
     110     1 5.625 5.625 -9.375 -6.010e-03 9.800e-04 -1.220e-03 1.509e-16 1.258e-17 4.793e-02 
     111     1 9.375 5.625 -9.375 1.900e-04 3.140e-03 2.550e-03 -9.151e-17 2.160e-16 4.793e-02 
     112     1 13.125 5.625 -9.375 2.900e-03 1.610e-03 -3.260e-03 2.984e-16 1.683e-16 4.793e-02 
     113     1 -13.125 9.375 -9.375 -2.850e-03 -1.960e-03 -7.100e-04 2.220e-16 6.592e-17 4.793e-02 
     114     1 -9.375 9.375 -9.375 -2.080e-03 -1.630e-03 1.250e-03 7.633e-17 -3.422e-16 4.793e-02 
     115     1 -5.625 9.375 -9.375 4.190e-03 -1.460e-03 1.820e-03 -8.413e-17 -8.587e-17 4.793e-02 
     116     1 -1.875 9.375 -9.375 2.520e-03 5.180e-03 -3.920e-03 2.754e-16 -1.206e-16 4.793e-02 
     117     1 1.875 9.375 -9.375 -8.300e-04 8.600e-04 4.230e-03 -8.413e-17 -8.587e-17 4.793e-02 
     118     1 5.625 9.375 -9.375 -1.190e-03 -1.350e-03 -6.020e-03 2.754e-16 -1.206e-16 4.793e-02 
     119     1 9.375 9.375 -9.375 -8.400e-04 -2.560e-03 -8.900e-04 0.000e+00 -1.214e-17 4.793e-02 
     120     1 13.125 9.375 -9.375 -8.700e-04 1.600e-03 7.700e-03 1.388e-17 1.110e-16 4.793e-02 
     121     1 -13.125 13.125 -9.375 -7.600e-04 -1.000e-05 -1.300e-03 4.441e-16 4.441e-16 4.793e-02 
     122     1 -9.375 13.125 -9.375 1.460e-03 -4.470e-03 3.200e-04 2.325e-16 8.674e-17 4.793e-02 
     123     1 -5.625 13.125 -9.375 3.400e-04 -3.320e-03 -9.900e-04 -9.151e-17 2.160e-16 4.793e-02 
     124     1 -1.875 13.125 -9.375 -3.480e-03 -2.870e-03 5.430e-03 1.509e-16 1.258e-17 4.793e-02 
     125     1 1.875 13.125 -9.375 -6.690e-03 -1.530e-03 -2.700e-03 -9.151e-17 2.160e-16 4.793e-02 
     126     1 5.625 13.125 -9.375 -2.000e-03 3.210e-03 -4.620e-03 1.509e-16 1.258e-17 4.793e-02 
     127     1 9.375 13.125 -9.375 1.050e-03 4.800e-04 2.840e-03 -9.151e-17 2.160e-16 4.793e-02 
     128     1 13.125 13.125 -9.375 -3.030e-03 2.980e-03 -1.030e-03 2.984e-16 1.683e-16 4.793e-02 
     129     1 -13.125 -13.125 -5.625 -4.970e-03 4.970e-03 1.550e-03 2.220e-16 3.886e-16 -2.793e-16 
     130     1 -9.375 -13.125 -5.625 3.080e-03 5.000e-04 -2.100e-03 -6.939e-17 2.220e-16 -4.280e-16 
     131     1 -5.625 -13.125 -5.625 4.700e-04 9.400e-04 -3.500e-04 -3.543e-16 4.441e-16 2.255e-17 
     132     1 -1.875 -13.125 -5.625 7.000e-04 -1.690e-03 2.800e-04 -1.132e-16 2.220e-16 -2.342e-16 
     133     1 1.875 -13.125 -5.625 -5.500e-04 4.710e-03 2.070e-03 -3.543e-16 4.441e-16 2.255e-17 
     134     1 5.625 -13.125 -5.625 9.400e-04 2.230e-03 5.740e-03 -1.132e-16 2.220e-16 -2.342e-16 
     135     1 9.375 -13.125 -5.625 -2.420e-03 -6.000e-05 2.580e-03 -2.741e-16 2.966e-16 9.194e-17 
     136     1 13.125 -13.125 -5.625 2.630e-03 -3.000e-05 -4.610e-03 1.110e-16 4.718e-16 5.551e-17 
     137     1 -13.125 -9.375 -5.625 7.100e-04 2.900e-03 -1.610e-03 0.000e+00 8.327e-17 -2.220e-16 
     138     1 -9.375 -9.375 -5.625 -3.500e-04 -1.940e-03 3.940e-03 4.857e-17 -5.725e-17 -6.579e-16 
     139     1 -5.625 -9.375 -5.625 -4.150e-03 3.960e-03 1.270e-03 -1.258e-16 2.567e-16 -4.983e-16 
     140     1 -1.875 -9.375 -5.625 -1.670e-03 2.160e-03 -4.110e-03 -1.648e-17 -1.318e-16 -4.567e-16 
     141     1 1.875 -9.375 -5.625 -4.080e-03 1.110e-03 2.240e-03 -1.258e-16 2.567e-16 -4.983e-16 
     142     1 5.625 -9.375 -5.625 2.000e-05 3.350e-03 -5.900e-04 -1.648e-17 -1.318e-16 -4.567e-16 
     143     1 9.375 -9.375 -5.625 1.820e-03 3.530e-03 2.300e-04 -6.592e-17 3.469e-17 -4.042e-16 
     144     1 13.125 -9.375 -5.625 -1.340e-03 -2.490e-03 -3.440e-03 8.327e-17 4.510e-17 -8.327e-17 
     145     1 -13.125 -5.625 -5.625 1.460e-03 2.600e-03 -6.700e-04 0.000e+00 -2.082e-16 3.469e-17 
     146     1 -9.375 -5.625 -5.625 1.980e-03 1.330e-03 4.500e-03 -9.714e-17 -3.409e-16 -1.878e-16 
     147     1 -5.625 -5.625 -5.625 1.300e-04 -1.620e-03 -1.070e-03 -3.378e-16 -1.193e-16 3.383e-17 
     148     1 -1.875 -5.625 -5.625 1.850e-03 -1.320e-03 2.710e-03 -9.498e-17 -3.413e-16 -1.882e-16 
     149     1 1.875 -5.625 -5.625 -5.770e-03 4.500e-03 3.320e-03 -3.378e-16 -1.193e-16 3.383e-17 
     150     1 5.625 -5.625 -5.625 1.310e-03 2.680e-03 1.360e-03 -9.498e-17 -3.413e-16 -1.882e-16 
     151     1 9.375 -5.625 -5.625 -1.800e-04 2.100e-03 -3.410e-03 -2.359e-16 -4.424e-17 1.084e-16 
     152     1 13.125 -5.625 -5.625 4.030e-03 -2.210e-03 -8.700e-04 -1.110e-16 -1.249e-16 1.249e-16 
     153     1 -13.125 -1.875 -5.625 6.900e-04 -2.400e-04 6.600e-04 2.220e-16 4.163e-17 -2.498e-16 
     154     1 -9.375 -1.875 -5.625 -2.780e-03 8.800e-04 -3.330e-03 4.857e-17 -5.378e-17 -4.363e-16 
     155     1 -5.625 -1.875 -5.625 1.210e-03 -2.830e-03 5.170e-03 -1.262e-16 2.641e-16 -2.767e-16 
     156     1 -1.875 -1.875 -5.625 -6.100e-03 -1.290e-03 1.360e-03 -1.691e-17 -1.002e-16 -4.571e-16 
     157     1 1.875 -1.875 -5.625 4.370e-03 -5.700e-04 1.570e-03 -1.262e-16 2.641e-16 -2.767e-16 
     158     1 5.625 -1.875 -5.625 7.450e-03 -9.100e-04 8.100e-04 -1.691e-17 -1.002e-16 -4.571e-16 
     159     1 9.375 -1.875 -5.625 -2.550e-03 5.800e-04 5.850e-03 -6.592e-17 2.641e-16 -1.821e-16 
     160     1 13.125 -1.875 -5.625 2.560e-03 -5.090e-03 -1.130e-03 0.000e+00 2.082e-17 -8.327e-17 
     161     1 -13.125 1.875 -5.625 -3.220e-03 -1.400e-03 -1.470e-03 0.000e+00 -2.082e-16 3.469e-17 
     162     1 -9.375 1.875 -5.625 -5.310e-03 2.870e-03 3.120e-03 -9.714e-17 -3.409e-16 -1.878e-16 
     163     1 -5.625 1.875 -5.625 3.640e-03 -6.100e-04 1.780e-03 -3.378e-16 -1.193e-16 3.383e-17 
     164     1 -1.875 1.875 -5.625 2.920e-03 -2.280e-03 -3.800e-04 -9.498e-17 -3.413e-16 -1.882e-16 
     165     1 1.875 1.875 -5.625 -3.460e-03 -7.100e-04 4.350e-03 -3.378e-16 -1.193e-16 3.383e-17 
     166     1 5.625 1.875 -5.625 -9.000e-04 2.320e-03 7.000e-05 -9.498e-17 -3.413e-16 -1.882e-16 
     167     1 9.375 1.875 -5.625 -4.690e-03 -3.000e-03 -3.510e-03 -2.359e-16 -4.424e-17 1.084e-16 
     168     1 13.125 1.875 -5.625 2.640e-03 -4.000e-03 -2.380e-03 -1.110e-16 -1.249e-16 1.249e-16 
     169     1 -13.125 5.625 -5.625 2.700e-03 1.560e-03 -3.210e-03 2.220e-16 4.163e-17 -2.498e-16 
     170     1 -9.375 5.625 -5.625 1.050e-03 -1.850e-03 -8.900e-04 4.857e-17 -5.378e-17 -4.363e-16 
     171     1 -5.625 5.625 -5.625 -2.210e-03 -1.670e-03 -2.030e-03 -1.262e-16 2.641e-16 -2.767e-16 
     172     1 -1.875 5.625 -5.625 -1.070e-03 2.370e-03 4.930e-03 -1.691e-17 -1.002e-16 -4.571e-16 
     173     1 1.875 5.625 -5.625 8.100e-04 6.400e-04 1.780e-03 -1.262e-16 2.641e-16 -2.767e-16 
     174     1 5.625 5.625 -5.625 -1.250e-03 -9.300e-04 7.400e-04 -1.691e-17 -1.002e-16 -4.571e-16 
     175     1 9.375 5.625 -5.625 -2.000e-05 -2.650e-03 -3.620e-03 -6.592e-17 2.641e-16 -1.821e-16 
     176     1 13.125 5.625 -5.625 -7.500e-04 3.890e-03 3.260e-03 0.000e+00 2.082e-17 -8.327e-17 
     177     1 -13.125 9.375 -5.625 2.010e-03 5.100e-04 1.280e-03 0.000e+00 -3.556e-16 1.041e-16 
     178     1 -9.375 9.375 -5.625 5.300e-04 -2.560e-03 -2.200e-04 -9.714e-17 -3.066e-16 -8.717e-17 
     179     1 -5.625 9.375 -5.625 -1.220e-03 9.000e-04 5.000e-03 -3.378e-16 -8.500e-17 1.344e-16 
     180     1 -1.875 9.375 -5.625 1.890e-03 1.240e-03 1.280e-03 -9.498e-17 -3.070e-16 -8.760e-17 
     181     1 1.875 9.375 -5.625 2.390e-03 -1.330e-03 -1.040e-03 -3.378e-16 -8.500e-17 1.344e-16 
     182     1 5.625 9.375 -5.625 -3.850e-03 2.950e-03 -1.360e-03 -9.498e-17 -3.070e-16 -8.760e-17 
     183     1 9.375 9.375 -5.625 6.600e-04 -8.100e-04 5.400e-04 -2.359e-16 -1.388e-17 2.099e-16 
     184     1 13.125 9.375 -5.625 3.110e-03 1.930e-03 2.120e-03 -1.110e-16 -5.551e-17 2.082e-16 
     185     1 -13.125 13.125 -5.625 4.180e-03 3.000e-03 -3.570e-03 2.220e-16 2.637e-16 9.714e-17 
     186     1 -9.375 13.125 -5.625 2.390e-03 -1.220e-03 -1.890e-03 1.388e-17 -8.674e-18 -6.332e-17 
     187     1 -5.625 13.125 -5.625 2.810e-03 -3.730e-03 -1.630e-03 -1.258e-16 1.110e-16 1.943e-16 
     188     1 -1.875 13.125 -5.625 -5.800e-04 -1.000e-04 1.040e-03 -1.648e-17 -1.110e-16 -5.551e-17 
     189     1 1.875 13.125 -5.625 1.320e-03 -1.360e-03 2.000e-05 -1.258e-16 1.110e-16 1.943e-16 
     190     1 5.625 13.125 -5.625 7.700e-04 2.500e-03 9.600e-04 -1.648e-17 -1.110e-16 -5.551e-17 
     191     1 9.375 13.125 -5.625 2.820e-03 -4.260e-03 -3.660e-03 -2.481e-16 1.388e-16 2.602e-16 
     192     1 13.125 13.125 -5.625 6.400e-04 -4.020e-03 -9.000e-05 8.327e-17 -3.123e-17 8.327e-17 
     193     1 -13.125 -13.125 -1.875 3.300e-04 1.430e-03 1.960e-03 2.220e-16 5.659e-03 -1.132e-02 
     194     1 -9.375 -13.125 -1.875 -3.640e-03 -5.820e-03 -2.090e-03 1.527e-16 5.659e-03 -1.132e-02 
     195     1 -5.625 -13.125 -1.875 -2.630e-03 -5.830e-03 1.150e-03 -7.980e-17 5.659e-03 -1.132e-02 
     196     1 -1.875 -13.125 -1.875 -1.510e-03 -5.530e-03 -2.320e-03 2.771e-16 5.659e-03 -1.132e-02 
     197     1 1.875 -13.125 -1.875 -6.450e-03 -3.930e-03 5.280e-03 -7.980e-17 5.659e-03 -1.132e-02 
     198     1 5.625 -13.125 -1.875 9.400e-04 6.100e-04 -5.500e-04 2.771e-16 5.659e-03 -1.132e-02 
     199     1 9.375 -13.125 -1.875 1.040e-03 1.970e-03 -1.850e-03 -7.980e-17 5.659e-03 -1.132e-02 
     200     1 13.125 -13.125 -1.875 -4.800e-03 -4.840e-03 -4.580e-03 1.943e-16 5.659e-03 -1.132e-02 
     201     1 -13.125 -9.375 -1.875 -1.800e-03 8.200e-04 8.500e-04 4.441e-16 2.914e-16 5.551e-17 
     202     1 -9.375 -9.375 -1.875 1.540e-03 -1.640e-03 -8.000e-04 2.325e-16 1.162e-16 -1.162e-16 
     203     1 -5.625 -9.375 -1.875 -2.600e-04 -3.050e-03 -2.800e-04 -9.107e-17 2.429e-16 2.255e-16 
     204     1 -1.875 -9.375 -1.875 8.800e-04 2.100e-03 2.670e-03 1.514e-16 4.163e-17 2.949e-17 
     205     1 1.875 -9.375 -1.875 1.300e-03 3.670e-03 -1.290e-03 -9.107e-17 2.429e-16 2.255e-16 
     206     1 5.625 -9.375 -1.875 2.240e-03 -4.300e-03 -4.670e-03 1.514e-16 4.163e-17 2.949e-17 
     207     1 9.375 -9.375 -1.875 -1.040e-03 -1.630e-03 2.040e-03 -9.107e-17 2.429e-16 2.255e-16 
     208     1 13.125 -9.375 -1.875 -0.000e+00 -1.860e-03 2.350e-03 2.810e-16 4.510e-17 -2.290e-16 
     209     1 -13.125 -5.625 -1.875 -4.300e-04 1.380e-03 9.900e-04 2.220e-16 6.592e-17 4.996e-16 
     210     1 -9.375 -5.625 -1.875 1.600e-03 2.200e-04 -2.310e-03 7.633e-17 -3.422e-16 3.469e-16 
     211     1 -5.625 -5.625 -1.875 5.110e-03 -1.670e-03 -1.400e-03 -8.413e-17 -8.587e-17 3.838e-16 
     212     1 -1.875 -5.625 -1.875 -1.560e-03 4.110e-03 -1.250e-03 2.754e-16 -1.206e-16 2.520e-16 
     213     1 1.875 -5.625 -1.875 2.140e-03 -1.170e-03 5.100e-03 -8.413e-17 -8.587e-17 3.838e-16 
     214     1 5.625 -5.625 -1.875 -5.490e-03 -9.000e-05 -2.970e-03 2.754e-16 -1.206e-16 2.520e-16 
     215     1 9.375 -5.625 -1.875 6.080e-03 3.720e-03 2.520e-03 0.000e+00 -1.214e-17 4.029e-16 
     216     1 13.125 -5.625 -1.875 5.500e-03 -2.500e-04 1.170e-03 1.388e-16 1.110e-16 2.429e-16 
     217     1 -13.125 -1.875 -1.875 6.260e-03 5.490e-03 3.030e-03 2.220e-16 4.441e-16 2.082e-16 
     218     1 -9.375 -1.875 -1.875 1.440e-03 2.090e-03 3.300e-03 2.325e-16 8.674e-17 1.041e-17 
     219     1 -5.625 -1.875 -1.875 2.350e-03 -2.530e-03 -2.030e-03 -9.151e-17 2.160e-16 1.323e-16 
     220     1 -1.875 -1.875 -1.875 -1.560e-03 6.900e-04 3.070e-03 1.509e-16 1.258e-17 -7.069e-17 
     221     1 1.875 -1.875 -1.875 8.100e-04 -8.200e-04 2.450e-03 -9.151e-17 2.160e-16 1.323e-16 
     222     1 5.625 -1.875 -1.875 1.910e-03 -4.300e-04 6.160e-03 1.509e-16 1.258e-17 -7.069e-17 
     223     1 9.375 -1.875 -1.875 2.500e-04 2.800e-04 1.270e-03 -9.151e-17 2.160e-16 1.323e-16 
     224     1 13.125 -1.875 -1.875 4.360e-03 1.730e-03 1.190e-03 2.359e-16 1.683e-16 -8.153e-17 
     225     1 -13.125 1.875 -1.875 6.620e-03 8.200e-04 -3.040e-03 1.394e-03 -1.394e-03 -2.788e-03 
     226     1 -9.375 1.875 -1.875 1.600e-03 3.980e-03 -3.540e-03 -1.394e-03 -1.394e-03 -2.788e-03 
     227     1 -5.625 1.875 -1.875 -3.050e-03 -7.500e-04 2.170e-03 -1.394e-03 -4.265e-03 -8.531e-03 
     228     1 -1.875 1.875 -1.875 7.200e-04 -3.420e-03 2.330e-03 2.810e-16 -5.659e-03 -1.132e-02 
     229     1 1.875 1.875 -1.875 5.540e-03 6.900e-04 4.900e-04 -7.893e-17 -5.659e-03 -1.132e-02 
     230     1 5.625 1.875 -1.875 -1.450e-03 4.400e-04 1.150e-03 2.810e-16 -5.659e-03 -1.132e-02 
     231     1 9.375 1.875 -1.875 -3.000e-05 2.330e-03 -1.430e-03 -6.939e-18 -5.659e-03 -1.132e-02 
     232     1 13.125 1.875 -1.875 1.270e-03 6.400e-04 2.810e-03 1.394e-03 -4.265e-03 -8.531e-03 
     233     1 -13.125 5.625 -1.875 -7.900e-04 1.430e-03 -2.400e-04 2.871e-03 -5.659e-03 -1.706e-02 
     234     1 -9.375 5.625 -1.875 -2.590e-03 2.950e-03 6.900e-04 -2.871e-03 -5.659e-03 -1.706e-02 
     235     1 -5.625 5.625 -1.875 -1.000e-04 1.470e-03 2.860e-03 -2.871e-03 -5.659e-03 -3.087e-02 
     236     1 -1.875 5.625 -1.875 -5.350e-03 1.120e-03 4.670e-03 1.496e-16 -5.659e-03 -3.661e-02 
     237     1 1.875 5.625 -1.875 2.050e-03 -3.330e-03 -1.280e-03 -9.671e-17 -5.659e-03 -3.661e-02 
     238     1 5.625 5.625 -1.875 -1.700e-03 4.100e-04 8.000e-04 1.496e-16 -5.659e-03 -3.661e-02 
     239     1 9.375 5.625 -1.875 -2.700e-04 -1.000e-04 -3.100e-04 -9.671e-17 -5.659e-03 -3.661e-02 
     240     1 13.125 5.625 -1.875 -1.100e-04 4.070e-03 -1.960e-03 2.871e-03 -5.659e-03 -3.087e-02 
     241     1 -13.125 9.375 -1.875 1.810e-03 1.000e-03 -2.600e-03 1.394e-03 -4.265e-03 -3.940e-02 
     242     1 -9.375 9.375 -1.875 1.960e-03 -2.060e-03 -3.440e-03 -1.394e-03 -4.265e-03 -3.940e-02 
     243     1 -5.625 9.375 -1.875 5.000e-05 5.340e-03 -4.050e-03 -1.394e-03 -1.394e-03 -4.514e-02 
     244     1 -1.875 9.375 -1.875 -2.350e-03 -8.300e-04 7.500e-04 2.802e-16 -1.379e-16 -4.793e-02 
     245     1 1.875 9.375 -1.875 -2.990e-03 7.890e-03 9.700e-04 -7.893e-17 -8.240e-17 -4.793e-02 
     246     1 5.625 9.375 -1.875 -6.270e-03 3.720e-03 3.000e-04 2.802e-16 -1.379e-16 -4.793e-02 
     247     1 9.375 9.375 -1.875 -2.950e-03 4.210e-03 -1.960e-03 -6.939e-18 -6.939e-18 -4.793e-02 
     248     1 13.125 9.375 -1.875 1.300e-04 2.670e-03 -3.760e-03 1.394e-03 -1.394e-03 -4.514e-02 
     249     1 -13.125 13.125 -1.875 9.400e-04 -2.070e-03 3.300e-04 2.220e-16 5.659e-03 -3.661e-02 
     250     1 -9.375 13.125 -1.875 -1.790e-03 4.100e-04 -3.500e-03 2.394e-16 5.659e-03 -3.661e-02 
     251     1 -5.625 13.125 -1.875 -2.320e-03 -9.800e-04 -3.240e-03 -9.151e-17 5.659e-03 -3.661e-02 
     252     1 -1.875 13.125 -1.875 2.000e-04 -3.290e-03 -1.390e-03 1.579e-16 5.659e-03 -3.661e-02 
     253     1 1.875 13.125 -1.875 1.260e-03 4.080e-03 -2.130e-03 -9.151e-17 5.659e-03 -3.661e-02 
     254     1 5.625 13.125 -1.875 3.700e-04 2.640e-03 -4.460e-03 1.579e-16 5.659e-03 -3.661e-02 
     255     1 9.375 13.125 -1.875 -2.400e-03 -6.000e-05 -1.100e-03 -9.151e-17 5.659e-03 -3.661e-02 
     256     1 13.125 13.125 -1.875 1.590e-03 -2.210e-03 -5.600e-04 2.325e-16 5.659e-03 -3.661e-02 
     257     1 -13.125 -13.125 1.875 3.450e-03 2.420e-03 1.690e-03 0.000e+00 1.422e-01 -1.845e-01 
     258     1 -9.375 -13.125 1.875 3.190e-03 -7.000e-05 9.500e-04 -6.939e-17 1.422e-01 -1.845e-01 
     259     1 -5.625 -13.125 1.875 -4.140e-03 -1.380e-03 -3.600e-04 -3.500e-16 1.422e-01 -1.845e-01 
     260     1 -1.875 -13.125 1.875 3.000e-04 3.500e-04 -2.350e-03 -1.071e-16 1.422e-01 -1.845e-01 
     261     1 1.875 -13.125 1.875 -5.000e-04 3.700e-04 -4.710e-03 -3.500e-16 1.422e-01 -1.845e-01 
     262     1 5.625 -13.125 1.875 -1.350e-03 -2.400e-04 4.100e-04 -1.071e-16 1.422e-01 -1.845e-01 
     263     1 9.375 -13.125 1.875 8.960e-03 1.720e-03 1.290e-03 -2.706e-16 1.422e-01 -1.845e-01 
     264     1 13.125 -13.125 1.875 5.180e-03 2.200e-04 4.440e-03 5.551e-17 1.422e-01 -1.845e-01 
     265     1 -13.125 -9.375 1.875 4.140e-03 -7.000e-04 -4.610e-03 0.000e+00 1.132e-02 -5.359e-02 
     266     1 -9.375 -9.375 1.875 -1.250e-03 -1.720e-03 -2.770e-03 4.857e-17 1.132e-02 -5.359e-02 
     267     1 -5.625 -9.375 1.875 -6.180e-03 -2.030e-03 2.070e-03 -1.258e-16 1.132e-02 -5.359e-02 
     268     1 -1.875 -9.375 1.875 3.650e-03 1.680e-03 -3.700e-04 -1.691e-17 1.132e-02 -5.359e-02 
     269     1 1.875 -9.375 1.875 -3.900e-04 5.750e-03 -4.030e-03 -1.258e-16 1.132e-02 -5.359e-02 
     270     1 5.625 -9.375 1.875 5.130e-03 3.400e-03 3.050e-03 -1.691e-17 1.132e-02 -5.359e-02 
     271     1 9.375 -9.375 1.875 1.040e-03 -1.720e-03 2.140e-03 -6.592e-17 1.132e-02 -5.359e-02 
     272     1 13.125 -9.375 1.875 -1.980e-03 -7.000e-05 2.300e-03 8.327e-17 1.132e-02 -5.359e-02 
     273     1 -13.125 -5.625 1.875 1.760e-03 3.400e-04 1.680e-03 0.000e+00 -2.082e-16 -4.793e-02 
     274     1 -9.375 -5.625 1.875 2.720e-03 3.280e-03 -1.640e-03 -9.714e-17 -3.404e-16 -4.793e-02 
     275     1 -5.625 -5.625 1.875 1.410e-03 -6.400e-03 1.150e-03 -3.378e-16 -1.188e-16 -4.793e-02 
     276     1 -1.875 -5.625 1.875 1.570e-03 2.530e-03 -7.100e-04 -9.498e-17 -3.409e-16 -4.793e-02 
     277     1 1.875 -5.625 1.875 2.840e-03 -1.020e-03 2.870e-03 -3.378e-16 -1.188e-16 -4.793e-02 
     278     1 5.625 -5.625 1.875 1.490e-03 -8.300e-04 -1.310e-03 -9.498e-17 -3.409e-16 -4.793e-02 
     279     1 9.375 -5.625 1.875 -2.500e-04 4.440e-03 -2.930e-03 -2.359e-16 -4.424e-17 -4.793e-02 
     280     1 13.125 -5.625 1.875 -1.300e-04 -4.110e-03 -2.030e-03 -1.110e-16 -1.249e-16 -4.793e-02 
     281     1 -13.125 -1.875 1.875 2.600e-03 2.520e-03 2.600e-04 1.394e-03 -2.788e-03 -4.933e-02 
     282     1 -9.375 -1.875 1.875 -3.040e-03 -5.000e-05 1.310e-03 -1.394e-03 -2.788e-03 -4.933e-02 
     283     1 -5.625 -1.875 1.875 8.200e-04 -2.360e-03 -2.220e-03 -1.394e-03 -8.531e-03 -5.220e-02 
     284     1 -1.875 -1.875 1.875 -1.300e-04 4.700e-04 -1.120e-03 -1.128e-17 -1.132e-02 -5.359e-02 
     285     1 1.875 -1.875 1.875 -6.800e-03 1.300e-04 -3.200e-03 -1.206e-16 -1.132e-02 -5.359e-02 
     286     1 5.625 -1.875 1.875 -2.280e-03 6.690e-03 -4.100e-04 -1.128e-17 -1.132e-02 -5.359e-02 
     287     1 9.375 -1.875 1.875 5.850e-03 2.390e-03 3.950e-03 -7.286e-17 -1.132e-02 -5.359e-02 
     288     1 13.125 -1.875 1.875 5.300e-04 -6.200e-04 -9.500e-04 1.394e-03 -8.531e-03 -5.220e-02 
     289     1 -13.125 1.875 1.875 -1.900e-03 1.200e-04 -2.750e-03 2.089e-02 -3.500e-02 -7.727e-02 
     290     1 -9.375 1.875 1.875 2.510e-03 1.960e-03 -1.410e-03 -2.089e-02 -3.500e-02 -7.727e-02 
     291     1 -5.625 1.875 1.875 1.550e-03 -6.790e-03 2.360e-03 -2.368e-02 -1.199e-01 -1.622e-01 
     292     1 -1.875 1.875 1.875 -4.600e-03 -3.100e-04 -3.370e-03 -2.788e-03 -1.408e-01 -1.831e-01 
     293     1 1.875 1.875 1.875 -5.000e-04 -2.250e-03 -1.970e-03 -2.567e-16 -1.422e-01 -1.845e-01 
     294     1 5.625 1.875 1.875 -2.970e-03 -2.760e-03 -1.410e-03 -2.602e-17 -1.422e-01 -1.845e-01 
     295     1 9.375 1.875 1.875 1.750e-03 1.000e-03 3.310e-03 2.788e-03 -1.408e-01 -1.831e-01 
     296     1 13.125 1.875 1.875 -4.610e-03 -1.730e-03 3.970e-03 2.368e-02 -1.199e-01 -1.622e-01 
     297     1 -13.125 5.625 1.875 -1.740e-03 -3.700e-03 -2.520e-03 8.635e-02 -1.422e-01 -2.766e-01 
     298     1 -9.375 5.625 1.875 -2.450e-03 -3.950e-03 6.000e-05 -8.635e-02 -1.422e-01 -2.766e-01 