ITEM: TIMESTEP
0
ITEM: NUMBER OF ATOMS
363
ITEM: BOX BOUNDS pp pp pp
-15.000000 15.000000
-15.000000 15.000000
-15.000000 15.000000
ITEM: ATOMS id type xu yu zu vx vy vz fx fy fz
1 1 -13.1250 -13.1250 -13.1250 -0.000011 -0.000041 -0.000041 -5.0539 0.0024 0.0021
2 1 -13.1250 -13.1249 -9.3750 -0.000009 0.000147 0.000006 -5.0528 -0.0044 -0.0017
3 1 -13.1250 -13.1250 -5.6250 -0.000021 -0.000008 -0.000051 -5.0552 -0.0033 0.0025
4 1 -13.1250 -13.1250 -1.8750 0.000053 -0.000002 0.000047 -5.0566 0.0001 -0.0025
5 1 -13.1250 -13.1250 1.8750 -0.000096 0.000046 0.000009 -5.0555 -0.0021 0.0016
6 1 -13.1250 -13.1249 5.6250 -0.000090 0.000220 0.000058 -5.0525 -0.0095 -0.0003
7 1 -13.1250 -13.1249 9.3750 -0.000098 0.000169 0.000087 -5.0527 -0.0065 -0.0017
8 1 -13.1250 -13.1249 13.1250 0.000006 0.000114 0.000017 -5.0556 -0.0059 0.0004
9 1 -13.1250 -9.3750 -13.1251 -0.000037 0.000080 -0.000141 -5.0536 -0.0027 0.0025
10 1 -13.1250 -9.3750 -9.3750 0.000019 -0.000076 -0.000043 -5.0552 0.0054 -0.0003
11 1 -13.1250 -9.3751 -5.6250 -0.000017 -0.000106 0.000046 -5.0558 0.0037 -0.0007
12 1 -13.1250 -9.3750 -1.8750 -0.000022 -0.000039 0.000083 -5.0533 0.0054 -0.0005
13 1 -13.1250 -9.3750 1.8750 0.000027 -0.000095 0.000079 -5.0550 0.0039 -0.0010
14 1 -13.1249 -9.3750 5.6250 0.000137 -0.000088 0.000008 -5.0563 0.0062 0.0008
15 1 -13.1250 -9.3749 9.3750 -0.000091 0.000148 -0.000015 -5.0514 0.0005 -0.0007
16 1 -13.1250 -9.3750 13.1250 -0.000038 -0.000075 -0.000074 -5.0558 0.0052 -0.0003
17 1 -13.1250 -5.6250 -13.1250 -0.000028 0.000031 0.000074 -5.0539 -0.0008 -0.0034
18 1 -13.1250 -5.6250 -9.3750 0.000091 0.000004 0.000028 -5.0554 -0.0008 -0.0004
19 1 -13.1250 -5.6250 -5.6250 0.000058 0.000016 -0.000051 -5.0548 -0.0022 0.0022
20 1 -13.1250 -5.6249 -1.8750 0.000050 0.000205 -0.000006 -5.0572 -0.0082 -0.0011
21 1 -13.1250 -5.6250 1.8750 0.000028 -0.000008 -0.000015 -5.0572 -0.0029 0.0030
22 1 -13.1250 -5.6250 5.6251 -0.000072 -0.000044 0.000141 -5.0511 0.0009 -0.0041
23 1 -13.1250 -5.6249 9.3750 0.000005 0.000107 0.000026 -5.0553 -0.0029 0.0002
24 1 -13.1250 -5.6250 13.1250 0.000078 0.000049 -0.000093 -5.0563 0.0003 0.0051
25 1 -13.1250 -1.8750 -13.1250 -0.000052 -0.000065 0.000021 -5.0553 0.0026 -0.0036
26 1 -13.1250 -1.8750 -9.3750 0.000082 0.000034 -0.000093 -5.0599 -0.0040 0.0045
27 1 -13.1250 -1.8750 -5.6250 0.000072 0.000030 0.000048 -5.0588 -0.0018 -0.0022
28 1 -13.1250 -1.8750 -1.8750 0.000087 -0.000041 0.000057 -5.0580 0.0054 0.0001
29 1 -13.1250 -1.8750 1.8750 -0.000063 -0.000070 0.000057 -5.0522 0.0010 -0.0053
30 1 -13.1250 -1.8750 5.6249 -0.000073 0.000062 -0.000240 -5.0573 -0.0044 0.0105
31 1 -13.1249 -1.8751 9.3750 0.000098 -0.000115 0.000067 -5.0579 0.0069 -0.0078
32 1 -13.1250 -1.8749 13.1250 -0.000006 0.000192 -0.000067 -5.0530 -0.0033 0.0039
33 1 -13.1250 1.8750 -13.1250 0.000054 0.000002 -0.000058 -5.0568 0.0000 -0.0012
34 1 -13.1250 1.8749 -9.3750 -0.000036 -0.000159 -0.000062 -5.0539 0.0036 0.0005
35 1 -13.1250 1.8750 -5.6250 -0.000062 -0.000057 -0.000043 -5.0569 0.0042 -0.0012
36 1 -13.1251 1.8750 -1.8750 -0.000135 0.000008 -0.000071 -5.0517 0.0001 0.0020
37 1 -13.1249 1.8750 1.8750 0.000234 -0.000065 0.000031 -5.0563 -0.0004 -0.0065
38 1 -13.1250 1.8750 5.6249 -0.000076 -0.000092 -0.000227 -5.0539 0.0024 0.0059
39 1 -13.1250 1.8750 9.3749 -0.000034 0.000072 -0.000134 -5.0584 -0.0065 -0.0018
40 1 -13.1250 1.8751 13.1249 -0.000091 0.000114 -0.000115 -5.0539 -0.0004 0.0004
41 1 -13.1251 5.6250 -13.1250 -0.000168 0.000067 -0.000066 -5.0526 -0.0031 -0.0032
42 1 -13.1249 5.6249 -9.3751 0.000161 -0.000126 -0.000245 -5.0590 0.0014 0.0068
43 1 -13.1249 5.6250 -5.6250 0.000104 0.000080 -0.000014 -5.0574 -0.0035 -0.0051
44 1 -13.1251 5.6250 -1.8750 -0.000145 0.000053 -0.000054 -5.0535 -0.0007 0.0013
45 1 -13.1251 5.6250 1.8750 -0.000176 -0.000081 -0.000018 -5.0542 0.0023 0.0004
46 1 -13.1250 5.6250 5.6250 -0.000057 -0.000096 0.000046 -5.0537 -0.0020 -0.0008
47 1 -13.1249 5.6249 9.3750 0.000101 -0.000111 0.000042 -5.0577 0.0057 -0.0009
48 1 -13.1250 5.6250 13.1250 -0.000068 -0.000009 -0.000037 -5.0563 0.0036 0.0009
49 1 -13.1250 9.3750 -13.1249 0.000081 -0.000049 0.000153 -5.0557 0.0026 -0.0061
50 1 -13.1251 9.3750 -9.3750 -0.000160 0.000024 -0.000032 -5.0535 -0.0014 0.0055
51 1 -13.1250 9.3750 -5.6250 0.000029 0.000003 0.000054 -5.0567 -0.0003 -0.0003
52 1 -13.1251 9.3750 -1.8749 -0.000130 0.000051 0.000110 -5.0543 0.0003 -0.0005
53 1 -13.1249 9.3750 1.8751 0.000102 0.000043 0.000123 -5.0537 -0.0013 0.0003
54 1 -13.1250 9.3749 5.6251 -0.000033 -0.000192 0.000122 -5.0555 0.0041 -0.0035
55 1 -13.1251 9.3750 9.3750 -0.000134 0.000026 -0.000087 -5.0531 -0.0061 0.0044
56 1 -13.1250 9.3750 13.1250 0.000013 0.000066 -0.000037 -5.0554 -0.0029 0.0025
57 1 -13.1250 13.1250 -13.1251 -0.000060 -0.000014 -0.000262 -5.0543 -0.0013 0.0054
58 1 -13.1250 13.1250 -9.3751 -0.000076 0.000093 -0.000202 -5.0520 0.0002 0.0039
59 1 -13.1250 13.1250 -5.6249 -0.000103 -0.000080 0.000102 -5.0510 0.0024 -0.0062
60 1 -13.1250 13.1250 -1.8750 -0.000071 0.000049 0.000045 -5.0535 -0.0007 -0.0017
61 1 -13.1250 13.1250 1.8749 0.000049 0.000087 -0.000108 -5.0553 -0.0015 0.0039
62 1 -13.1251 13.1250 5.6250 -0.000136 -0.000023 -0.000012 -5.0521 0.0013 0.0001
63 1 -13.1251 13.1249 9.3750 -0.000128 -0.000177 0.000097 -5.0527 0.0097 -0.0029
64 1 -13.1250 13.1250 13.1250 0.000036 -0.000035 0.000030 -5.0545 0.0049 -0.0041
65 1 -9.3750 -13.1250 -13.1250 0.000063 -0.000054 0.000054 0.1962 0.0000 0.0003
66 1 -9.3749 -13.1250 -9.3749 0.000125 -0.000082 0.000117 0.1971 0.0009 -0.0025
67 1 -9.3750 -13.1250 -5.6250 -0.000014 0.000091 0.000014 0.2017 -0.0030 0.0025
68 1 -9.3750 -13.1250 -1.8750 -0.000040 0.000092 0.000030 0.2019 -0.0057 -0.0006
69 1 -9.3750 -13.1249 1.8750 -0.000083 0.000187 -0.000003 0.1982 -0.0024 -0.0001
70 1 -9.3750 -13.1251 5.6250 0.000075 -0.000104 -0.000029 0.1974 0.0030 0.0030
71 1 -9.3750 -13.1250 9.3751 0.000055 0.000067 0.000101 0.1976 -0.0085 -0.0038
72 1 -9.3750 -13.1251 13.1250 -0.000013 -0.000105 -0.000004 0.1990 0.0006 0.0029
73 1 -9.3750 -9.3750 -13.1250 0.000061 -0.000077 0.000064 0.1977 0.0028 -0.0029
74 1 -9.3750 -9.3750 -9.3750 0.000022 0.000004 -0.000030 0.1998 -0.0030 0.0013
75 1 -9.3750 -9.3750 -5.6250 -0.000038 0.000001 -0.000042 0.2028 0.0026 0.0002
76 1 -9.3750 -9.3751 -1.8750 0.000096 -0.000114 -0.000033 0.1978 0.0035 0.0016
77 1 -9.3750 -9.3750 1.8750 0.000038 0.000026 0.000079 0.2025 0.0036 -0.0063
78 1 -9.3750 -9.3750 5.6249 0.000045 -0.000029 -0.000162 0.2030 -0.0003 0.0045
79 1 -9.3749 -9.3751 9.3749 0.000144 -0.000203 -0.000118 0.1949 0.0058 0.0004
80 1 -9.3750 -9.3750 13.1250 -0.000054 0.000035 -0.000026 0.2024 -0.0005 -0.0001
81 1 -9.3750 -5.6250 -13.1251 0.000061 0.000077 -0.000110 0.1996 -0.0046 0.0032
82 1 -9.3750 -5.6250 -9.3750 0.000074 -0.000085 -0.000042 0.1993 0.0025 -0.0027
83 1 -9.3750 -5.6250 -5.6251 0.000083 0.000039 -0.000120 0.1971 0.0000 0.0025
84 1 -9.3750 -5.6251 -1.8750 -0.000052 -0.000107 -0.000040 0.2010 -0.0004 -0.0043
85 1 -9.3750 -5.6250 1.8749 -0.000084 0.000042 -0.000187 0.2035 -0.0005 0.0024
86 1 -9.3749 -5.6250 5.6249 0.000180 0.000023 -0.000155 0.1957 -0.0008 -0.0025
87 1 -9.3750 -5.6250 9.3749 0.000013 -0.000094 -0.000218 0.1992 -0.0013 0.0048
88 1 -9.3750 -5.6249 13.1250 0.000010 0.000125 0.000025 0.2031 -0.0025 -0.0070
89 1 -9.3750 -1.8750 -13.1250 -0.000035 -0.000026 -0.000044 0.2011 0.0017 0.0037
90 1 -9.3751 -1.8750 -9.3750 -0.000181 -0.000019 -0.000064 0.2084 -0.0004 0.0007
91 1 -9.3751 -1.8750 -5.6250 -0.000127 0.000056 -0.000028 0.2074 -0.0028 -0.0009
92 1 -9.3750 -1.8750 -1.8750 -0.000084 -0.000076 -0.000023 0.2042 -0.0002 -0.0008
93 1 -9.3749 -1.8750 1.8750 0.000134 0.000015 -0.000052 0.1960 -0.0021 0.0011
94 1 -9.3751 -1.8750 5.6250 -0.000167 0.000022 -0.000011 0.2022 0.0007 -0.0019
95 1 -9.3750 -1.8750 9.3750 -0.000066 -0.000027 -0.000079 0.2039 -0.0022 0.0060
96 1 -9.3749 -1.8750 13.1251 0.000122 0.000040 0.000179 0.1959 -0.0009 -0.0078
97 1 -9.3750 1.8750 -13.1250 -0.000053 -0.000041 -0.000043 0.2030 0.0031 0.0025
98 1 -9.3750 1.8750 -9.3750 0.000062 0.000028 0.000077 0.1965 0.0027 -0.0003
99 1 -9.3751 1.8750 -5.6249 -0.000136 -0.000094 0.000164 0.2041 0.0017 -0.0029
100 1 -9.3750 1.8750 -1.8750 0.000094 -0.000030 0.000052 0.1971 0.0007 0.0020
101 1 -9.3749 1.8749 1.8750 0.000107 -0.000135 0.000017 0.1996 0.0048 0.0013
102 1 -9.3750 1.8750 5.6250 0.000022 0.000055 0.000044 0.1999 0.0009 -0.0035
103 1 -9.3751 1.8750 9.3749 -0.000190 -0.000065 -0.000147 0.2087 0.0005 0.0057
104 1 -9.3750 1.8750 13.1250 0.000004 -0.000092 -0.000012 0.1993 0.0042 -0.0031
105 1 -9.3750 5.6251 -13.1249 0.000029 0.000116 0.000138 0.1949 -0.0060 -0.0047
106 1 -9.3750 5.6251 -9.3750 -0.000090 0.000188 -0.000018 0.2079 -0.0074 0.0039
107 1 -9.3750 5.6249 -5.6250 -0.000031 -0.000127 0.000028 0.2036 0.0035 -0.0036
108 1 -9.3750 5.6250 -1.8751 -0.000034 0.000048 -0.000125 0.1970 -0.0041 0.0031
109 1 -9.3750 5.6250 1.8750 -0.000065 0.000008 -0.000074 0.2001 -0.0015 -0.0017
110 1 -9.3750 5.6251 5.6250 0.000034 0.000101 -0.000078 0.1985 -0.0002 -0.0003
111 1 -9.3750 5.6250 9.3750 -0.000067 -0.000059 -0.000073 0.2051 0.0003 0.0011
112 1 -9.3751 5.6250 13.1250 -0.000113 0.000024 0.000002 0.1983 -0.0028 0.0011
113 1 -9.3750 9.3750 -13.1250 0.000020 -0.000075 0.000017 0.2016 0.0043 -0.0029
114 1 -9.3750 9.3749 -9.3751 -0.000016 -0.000106 -0.000124 0.1972 0.0052 0.0039
115 1 -9.3750 9.3750 -5.6250 -0.000064 0.000073 -0.000020 0.2040 -0.0048 -0.0022
116 1 -9.3750 9.3749 -1.8750 -0.000046 -0.000114 -0.000031 0.1963 0.0039 0.0013
117 1 -9.3749 9.3750 1.8750 0.000153 0.000076 0.000033 0.1957 0.0010 0.0008
118 1 -9.3750 9.3750 5.6251 -0.000044 0.000092 0.000147 0.2011 -0.0003 -0.0048
119 1 -9.3750 9.3750 9.3750 0.000013 -0.000019 -0.000030 0.1958 -0.0034 0.0040
120 1 -9.3750 9.3750 13.1250 0.000004 -0.000019 0.000015 0.2007 -0.0022 -0.0008
121 1 -9.3750 13.1250 -13.1250 0.000010 -0.000026 0.000025 0.1961 -0.0014 0.0012
122 1 -9.3749 13.1250 -9.3750 0.000106 -0.000087 -0.000056 0.1947 -0.0008 0.0013
123 1 -9.3749 13.1250 -5.6250 0.000150 -0.000011 -0.000059 0.1931 0.0036 -0.0002
124 1 -9.3750 13.1250 -1.8750 0.000039 -0.000018 -0.000050 0.1985 0.0000 0.0033
125 1 -9.3750 13.1251 1.8751 0.000032 0.000176 0.000152 0.2003 -0.0010 -0.0077
126 1 -9.3750 13.1250 5.6249 0.000060 0.000030 -0.000103 0.1964 -0.0012 0.0062
127 1 -9.3750 13.1249 9.3750 0.000031 -0.000147 0.000010 0.1979 0.0059 0.0003
128 1 -9.3750 13.1249 13.1251 0.000065 -0.000180 0.000144 0.1976 0.0038 -0.0040
129 1 -5.6251 -13.1250 -13.1250 -0.000116 0.000000 0.000002 0.0064 0.0018 0.0003
130 1 -5.6250 -13.1250 -9.3750 0.000037 0.000074 -0.000022 0.0007 -0.0038 0.0007
131 1 -5.6250 -13.1250 -5.6250 0.000058 -0.000046 0.000009 -0.0019 0.0022 -0.0027
132 1 -5.6250 -13.1250 -1.8750 -0.000057 0.000037 -0.000097 0.0008 -0.0052 0.0024
133 1 -5.6251 -13.1250 1.8750 -0.000177 0.000054 -0.000043 -0.0004 -0.0025 -0.0032
134 1 -5.6250 -13.1250 5.6249 0.000043 -0.000008 -0.000141 -0.0006 -0.0020 0.0021
135 1 -5.6250 -13.1250 9.3750 0.000040 0.000007 -0.000081 -0.0019 -0.0006 0.0003
136 1 -5.6251 -13.1250 13.1250 -0.000115 0.000024 0.000031 0.0053 -0.0027 -0.0026
137 1 -5.6250 -9.3750 -13.1250 -0.000015 -0.000054 0.000063 0.0028 0.0059 -0.0019
138 1 -5.6250 -9.3751 -9.3750 -0.000017 -0.000116 0.000025 -0.0004 0.0037 0.0022
139 1 -5.6250 -9.3750 -5.6250 0.000076 0.000017 0.000085 -0.0037 -0.0014 -0.0005
140 1 -5.6250 -9.3751 -1.8750 0.000027 -0.000110 0.000093 0.0009 0.0069 0.0026
141 1 -5.6249 -9.3750 1.8751 0.000136 -0.000072 0.000210 -0.0019 0.0038 -0.0029
142 1 -5.6250 -9.3750 5.6251 0.000092 -0.000004 0.000117 -0.0054 0.0009 0.0026
143 1 -5.6250 -9.3750 9.3751 0.000033 0.000051 0.000118 0.0002 -0.0037 -0.0018
144 1 -5.6250 -9.3750 13.1250 0.000047 0.000027 -0.000018 -0.0037 -0.0029 0.0039
145 1 -5.6250 -5.6249 -13.1250 0.000080 0.000211 -0.000072 -0.0041 -0.0105 0.0026
146 1 -5.6250 -5.6250 -9.3750 -0.000037 -0.000084 -0.000051 0.0040 -0.0016 0.0004
147 1 -5.6251 -5.6250 -5.6250 -0.000113 -0.000007 0.000004 0.0045 0.0009 -0.0024
148 1 -5.6251 -5.6249 -1.8750 -0.000122 0.000140 -0.000066 0.0031 -0.0068 0.0028
149 1 -5.6250 -5.6250 1.8750 -0.000008 0.000032 0.000045 -0.0003 -0.0022 -0.0021
150 1 -5.6249 -5.6250 5.6250 0.000105 0.000054 0.000045 0.0014 -0.0012 -0.0001
151 1 -5.6250 -5.6251 9.3750 -0.000046 -0.000131 0.000033 0.0011 0.0079 0.0009
152 1 -5.6250 -5.6251 13.1250 0.000071 -0.000130 0.000061 -0.0014 0.0051 -0.0026
153 1 -5.6250 -1.8751 -13.1250 0.000011 -0.000142 0.000015 -0.0022 0.0068 -0.0016
154 1 -5.6250 -1.8751 -9.3750 0.000017 -0.000111 0.000073 -0.0053 -0.0004 -0.0004
155 1 -5.6250 -1.8750 -5.6250 0.000052 0.000019 0.000100 -0.0042 0.0014 -0.0036
156 1 -5.6250 -1.8750 -1.8750 -0.000041 -0.000004 -0.000093 0.0006 0.0012 0.0072
157 1 -5.6250 -1.8750 1.8751 0.000035 0.000019 0.000118 0.0042 0.0004 -0.0029
158 1 -5.6251 -1.8750 5.6251 -0.000124 0.000038 0.000149 0.0018 -0.0038 -0.0029
159 1 -5.6250 -1.8749 9.3750 -0.000054 0.000142 -0.000013 0.0021 -0.0072 0.0008
160 1 -5.6250 -1.8750 13.1249 -0.000045 0.000027 -0.000129 0.0049 -0.0040 0.0041
161 1 -5.6250 1.8750 -13.1250 -0.000018 -0.000088 0.000044 0.0024 -0.0014 -0.0004
162 1 -5.6251 1.8749 -9.3749 -0.000104 -0.000136 0.000194 0.0049 0.0037 -0.0040
163 1 -5.6250 1.8751 -5.6250 0.000003 0.000103 0.000091 -0.0035 -0.0041 -0.0022
164 1 -5.6250 1.8750 -1.8751 0.000096 -0.000083 -0.000141 0.0002 0.0013 0.0082
165 1 -5.6250 1.8750 1.8751 -0.000092 0.000019 0.000108 0.0063 0.0014 -0.0078
166 1 -5.6250 1.8749 5.6250 0.000062 -0.000178 -0.000070 -0.0012 0.0040 0.0038
167 1 -5.6249 1.8750 9.3750 0.000125 -0.000017 -0.000023 -0.0075 0.0037 -0.0029
168 1 -5.6250 1.8750 13.1249 0.000011 -0.000036 -0.000129 0.0003 0.0012 0.0047
169 1 -5.6251 5.6250 -13.1249 -0.000106 -0.000096 0.000129 0.0054 0.0011 -0.0026
170 1 -5.6250 5.6250 -9.3750 0.000069 0.000079 0.000013 -0.0048 -0.0045 0.0012
171 1 -5.6250 5.6250 -5.6250 -0.000020 -0.000082 -0.000035 -0.0014 0.0053 0.0017
172 1 -5.6251 5.6250 -1.8750 -0.000116 -0.000057 0.000030 0.0020 0.0022 0.0044
173 1 -5.6250 5.6250 1.8752 0.000040 0.000067 0.000309 -0.0029 -0.0025 -0.0109
174 1 -5.6250 5.6249 5.6250 -0.000014 -0.000130 -0.000079 0.0020 -0.0003 0.0087
175 1 -5.6250 5.6250 9.3750 0.000007 0.000016 0.000015 -0.0037 0.0018 -0.0003
176 1 -5.6251 5.6250 13.1250 -0.000260 -0.000045 0.000089 0.0040 0.0016 -0.0002
177 1 -5.6250 9.3750 -13.1250 0.000004 -0.000022 0.000017 0.0012 0.0019 0.0002
178 1 -5.6250 9.3750 -9.3750 -0.000058 0.000037 0.000053 0.0014 0.0007 -0.0007
179 1 -5.6250 9.3750 -5.6250 0.000035 0.000032 0.000030 -0.0026 -0.0024 -0.0003
180 1 -5.6251 9.3751 -1.8750 -0.000185 0.000102 -0.000031 0.0030 -0.0062 0.0026
181 1 -5.6251 9.3750 1.8750 -0.000117 -0.000044 0.000063 0.0083 0.0033 -0.0011
182 1 -5.6250 9.3750 5.6251 -0.000013 -0.000043 0.000100 -0.0008 -0.0034 0.0002
183 1 -5.6251 9.3751 9.3751 -0.000114 0.000127 0.000138 0.0038 -0.0051 -0.0028
184 1 -5.6250 9.3750 13.1250 -0.000011 0.000038 -0.000008 -0.0003 -0.0047 0.0029
185 1 -5.6251 13.1251 -13.1251 -0.000160 0.000156 -0.000206 0.0050 -0.0054 0.0087
186 1 -5.6250 13.1250 -9.3750 -0.000055 0.000035 0.000046 0.0041 0.0009 -0.0055
187 1 -5.6250 13.1250 -5.6250 -0.000046 0.000022 -0.000006 0.0071 -0.0009 0.0008
188 1 -5.6250 13.1249 -1.8750 0.000021 -0.000101 -0.000005 0.0020 0.0059 0.0006
189 1 -5.6250 13.1250 1.8750 -0.000007 0.000038 0.000013 -0.0015 -0.0008 -0.0005
190 1 -5.6250 13.1249 5.6250 0.000005 -0.000111 0.000005 0.0010 0.0026 -0.0005
191 1 -5.6250 13.1250 9.3750 0.000037 -0.000079 -0.000040 0.0010 0.0053 0.0026
192 1 -5.6250 13.1249 13.1250 -0.000091 -0.000137 0.000077 0.0051 0.0057 -0.0072
193 1 -1.8750 -13.1250 -13.1250 0.000065 -0.000009 -0.000077 -0.0503 0.0239 0.0036
194 1 -1.8750 -13.1250 -9.3750 -0.000029 0.000021 0.000018 -0.0463 0.0206 -0.0020
195 1 -1.8750 -13.1251 -5.6250 0.000018 -0.000171 -0.000000 -0.0457 0.0307 0.0012
196 1 -1.8750 -13.1250 -1.8750 -0.000018 -0.000029 0.000045 -0.0464 0.0248 -0.0029
197 1 -1.8751 -13.1250 1.8750 -0.000237 -0.000066 -0.000086 -0.0420 0.0243 0.0030
198 1 -1.8750 -13.1249 5.6250 -0.000035 0.000226 -0.000042 -0.0447 0.0197 0.0012
199 1 -1.8750 -13.1250 9.3750 -0.000089 -0.000051 0.000062 -0.0422 0.0262 -0.0017
200 1 -1.8750 -13.1250 13.1250 0.000094 -0.000005 0.000051 -0.0503 0.0241 -0.0019
201 1 -1.8750 -9.3750 -13.1250 0.000066 -0.000081 -0.000001 -0.0016 0.0064 -0.0033
202 1 -1.8750 -9.3751 -9.3750 -0.000065 -0.000138 -0.000096 0.0024 0.0045 0.0011
203 1 -1.8750 -9.3750 -5.6251 -0.000027 0.000071 -0.000111 0.0037 -0.0072 0.0026
204 1 -1.8750 -9.3749 -1.8750 0.000004 0.000112 0.000056 -0.0020 -0.0004 -0.0035
205 1 -1.8750 -9.3750 1.8750 0.000094 0.000095 0.000036 -0.0010 -0.0053 -0.0010
206 1 -1.8751 -9.3749 5.6250 -0.000156 0.000150 -0.000044 0.0055 -0.0002 0.0019
207 1 -1.8750 -9.3750 9.3750 -0.000070 -0.000030 -0.000010 0.0026 0.0006 -0.0022
208 1 -1.8750 -9.3750 13.1250 -0.000070 0.000043 -0.000078 0.0027 -0.0025 0.0021
209 1 -1.8751 -5.6249 -13.1250 -0.000137 0.000210 -0.000019 0.0084 -0.0076 -0.0003
210 1 -1.8750 -5.6250 -9.3751 0.000076 -0.000020 -0.000131 -0.0014 -0.0014 0.0033
211 1 -1.8750 -5.6250 -5.6250 -0.000041 -0.000083 -0.000030 0.0000 0.0009 0.0027
212 1 -1.8750 -5.6249 -1.8749 0.000000 0.000199 0.000216 -0.0026 -0.0047 -0.0060
213 1 -1.8750 -5.6250 1.8750 0.000060 -0.000040 0.000085 -0.0019 0.0014 0.0005
214 1 -1.8750 -5.6250 5.6250 0.000073 0.000032 -0.000035 0.0003 0.0038 0.0035
215 1 -1.8750 -5.6250 9.3750 -0.000024 0.000037 0.000038 -0.0002 -0.0033 -0.0003
216 1 -1.8750 -5.6250 13.1250 0.000038 -0.000056 0.000088 -0.0001 0.0025 -0.0027
217 1 -1.8750 -1.8750 -13.1250 -0.000064 0.000047 0.000094 0.0029 0.0037 -0.0004
218 1 -1.8750 -1.8750 -9.3750 -0.000082 0.000030 0.000063 0.0032 0.0012 -0.0009
219 1 -1.8750 -1.8751 -5.6250 -0.000014 -0.000157 -0.000035 0.0015 0.0027 0.0032
220 1 -1.8750 -1.8750 -1.8750 0.000052 -0.000025 0.000055 -0.0055 0.0078 -0.0016
221 1 -1.8749 -1.8750 1.8750 0.000141 -0.000067 0.000061 -0.0035 0.0019 -0.0016
222 1 -1.8750 -1.8749 5.6250 0.000057 0.000116 -0.000035 -0.0040 -0.0032 0.0031
223 1 -1.8750 -1.8750 9.3750 0.000081 -0.000091 0.000047 -0.0041 0.0039 -0.0006
224 1 -1.8750 -1.8750 13.1250 0.000068 0.000008 0.000083 -0.0032 -0.0043 0.0000
225 1 -1.8749 1.8750 -13.1250 0.000141 0.000073 0.000021 -0.0188 -0.0092 0.0045
226 1 -1.8750 1.8751 -9.3750 0.000018 0.000128 0.000047 -0.0014 -0.0007 -0.0004
227 1 -1.8750 1.8750 -5.6250 -0.000047 -0.000045 0.000054 -0.0124 -0.0098 -0.0068
228 1 -1.8750 1.8751 -1.8750 0.000069 0.000161 -0.000011 -0.0381 -0.0247 -0.0044
229 1 -1.8750 1.8750 1.8750 0.000089 0.000034 0.000004 -0.0524 -0.0254 -0.0021
230 1 -1.8750 1.8750 5.6250 0.000017 -0.000011 -0.000092 -0.0509 -0.0166 0.0041
231 1 -1.8750 1.8750 9.3750 0.000006 0.000023 0.000041 -0.0456 -0.0255 -0.0042
232 1 -1.8750 1.8749 13.1250 0.000022 -0.000169 -0.000066 -0.0387 -0.0129 0.0091
233 1 -1.8750 5.6249 -13.1250 0.000068 -0.000108 0.000066 -0.0735 -0.0204 0.0089
234 1 -1.8750 5.6251 -9.3750 -0.000064 0.000145 -0.000091 -0.0425 -0.0223 0.0055
235 1 -1.8750 5.6249 -5.6250 -0.000082 -0.000112 0.000067 -0.0688 -0.0187 -0.0154
236 1 -1.8750 5.6250 -1.8750 -0.000066 -0.000070 0.000016 -0.1300 -0.0158 -0.0131
237 1 -1.8750 5.6250 1.8750 -0.000040 0.000046 -0.000093 -0.1485 -0.0256 0.0007
238 1 -1.8750 5.6251 5.6249 0.000057 0.000236 -0.000131 -0.1565 -0.0307 0.0026
239 1 -1.8751 5.6250 9.3750 -0.000137 0.000030 0.000008 -0.1471 -0.0261 -0.0016
240 1 -1.8751 5.6250 13.1250 -0.000128 -0.000028 0.000070 -0.1296 -0.0238 0.0110
241 1 -1.8750 9.3750 -13.1249 0.000042 -0.000075 0.000212 -0.1630 -0.0165 -0.0047
242 1 -1.8750 9.3751 -9.3751 -0.000008 0.000191 -0.000121 -0.1513 -0.0271 0.0047
243 1 -1.8750 9.3751 -5.6251 -0.000031 0.000128 -0.000168 -0.1622 -0.0241 0.0009
244 1 -1.8751 9.3751 -1.8749 -0.000122 0.000146 0.000208 -0.1872 -0.0138 -0.0171
245 1 -1.8750 9.3750 1.8750 0.000076 -0.000040 -0.000086 -0.2039 -0.0011 0.0088
246 1 -1.8750 9.3750 5.6251 -0.000030 0.000048 0.000110 -0.1998 0.0033 -0.0041
247 1 -1.8750 9.3750 9.3750 -0.000004 -0.000089 0.000056 -0.2001 0.0049 -0.0013
248 1 -1.8750 9.3751 13.1250 -0.000057 0.000104 -0.000057 -0.1887 -0.0098 0.0125
249 1 -1.8750 13.1250 -13.1249 -0.000025 0.000070 0.000227 -0.1559 0.0196 -0.0063
250 1 -1.8750 13.1250 -9.3750 0.000008 0.000006 0.000068 -0.1560 0.0273 0.0048
251 1 -1.8749 13.1250 -5.6249 0.000152 0.000013 0.000148 -0.1592 0.0226 -0.0065
252 1 -1.8750 13.1249 -1.8751 0.000085 -0.000104 -0.000162 -0.1559 0.0296 0.0060
253 1 -1.8751 13.1249 1.8750 -0.000140 -0.000162 -0.000095 -0.1486 0.0269 -0.0009
254 1 -1.8750 13.1250 5.6250 0.000012 0.000015 -0.000056 -0.1523 0.0286 0.0024
255 1 -1.8750 13.1250 9.3751 0.000079 0.000087 0.000136 -0.1572 0.0184 -0.0060
256 1 -1.8750 13.1250 13.1250 0.000041 -0.000026 -0.000019 -0.1548 0.0265 0.0072
257 1 1.8750 -13.1251 -13.1250 0.000079 -0.000102 0.000079 -0.7748 0.6017 -0.0027
258 1 1.8750 -13.1249 -9.3750 -0.000028 0.000103 0.000012 -0.7704 0.5924 -0.0013
259 1 1.8750 -13.1250 -5.6251 0.000067 0.000059 -0.000114 -0.7722 0.5944 0.0041
260 1 1.8750 -13.1249 -1.8750 0.000068 0.000157 0.000023 -0.7722 0.5865 -0.0034
261 1 1.8750 -13.1250 1.8750 0.000050 0.000087 -0.000030 -0.7788 0.5950 0.0037
262 1 1.8750 -13.1250 5.6251 0.000014 -0.000089 0.000115 -0.7728 0.5976 -0.0074
263 1 1.8750 -13.1250 9.3749 0.000086 0.000018 -0.000170 -0.7758 0.5915 0.0070
264 1 1.8751 -13.1249 13.1250 0.000118 0.000138 -0.000025 -0.7745 0.5908 -0.0008
265 1 1.8750 -9.3750 -13.1249 0.000033 0.000067 0.000153 -0.2243 0.0440 -0.0028
266 1 1.8750 -9.3750 -9.3750 0.000040 0.000045 0.000076 -0.2249 0.0490 0.0029
267 1 1.8750 -9.3749 -5.6249 0.000071 0.000120 0.000132 -0.2276 0.0458 -0.0026
268 1 1.8749 -9.3750 -1.8750 -0.000131 -0.000093 -0.000006 -0.2221 0.0515 0.0012
269 1 1.8750 -9.3749 1.8750 -0.000042 0.000125 -0.000073 -0.2187 0.0460 0.0010
270 1 1.8750 -9.3749 5.6250 -0.000061 0.000128 -0.000066 -0.2267 0.0406 0.0011
271 1 1.8750 -9.3750 9.3750 -0.000033 -0.000055 0.000019 -0.2239 0.0469 -0.0009
272 1 1.8750 -9.3749 13.1250 -0.000014 0.000123 0.000042 -0.2233 0.0479 0.0018
273 1 1.8751 -5.6250 -13.1250 0.000143 0.000045 0.000072 -0.2045 0.0016 0.0010
274 1 1.8750 -5.6250 -9.3749 0.000076 0.000070 0.000142 -0.2009 -0.0016 -0.0030
275 1 1.8750 -5.6250 -5.6250 0.000044 0.000062 0.000008 -0.2018 0.0019 0.0023
276 1 1.8750 -5.6250 -1.8750 -0.000018 -0.000067 0.000004 -0.2008 0.0000 -0.0013
277 1 1.8750 -5.6250 1.8750 0.000021 0.000053 -0.000049 -0.2008 0.0006 -0.0004
278 1 1.8750 -5.6250 5.6249 0.000033 -0.000050 -0.000121 -0.2019 0.0044 0.0027
279 1 1.8750 -5.6251 9.3750 0.000000 -0.000130 -0.000018 -0.2015 0.0034 -0.0008
280 1 1.8750 -5.6249 13.1250 -0.000017 0.000115 0.000048 -0.2005 -0.0039 -0.0008
281 1 1.8750 -1.8749 -13.1250 0.000032 0.000117 0.000003 -0.2073 -0.0146 0.0046
282 1 1.8750 -1.8750 -9.3751 0.000011 -0.000007 -0.000107 -0.2020 0.0007 0.0045
283 1 1.8750 -1.8750 -5.6250 -0.000005 0.000091 0.000067 -0.2046 -0.0144 -0.0077
284 1 1.8749 -1.8750 -1.8749 -0.000156 -0.000010 0.000118 -0.2118 -0.0367 -0.0124
285 1 1.8750 -1.8750 1.8749 0.000030 -0.000003 -0.000213 -0.2204 -0.0465 0.0095
286 1 1.8750 -1.8750 5.6250 0.000024 0.000013 0.000020 -0.2239 -0.0505 -0.0059
287 1 1.8750 -1.8750 9.3750 -0.000017 0.000026 -0.000089 -0.2237 -0.0503 0.0042
288 1 1.8750 -1.8751 13.1250 -0.000004 -0.000142 0.000052 -0.2172 -0.0282 0.0024
289 1 1.8749 1.8750 -13.1250 -0.000124 -0.000002 0.000046 -0.3125 -0.1362 0.0978
290 1 1.8750 1.8750 -9.3750 0.000055 -0.000034 0.000003 -0.2379 -0.0582 -0.0009
291 1 1.8749 1.8750 -5.6250 -0.000125 -0.000061 -0.000094 -0.3129 -0.1356 -0.0963
292 1 1.8749 1.8750 -1.8750 -0.000108 -0.000007 -0.000010 -0.6732 -0.5000 -0.1000
293 1 1.8750 1.8750 1.8750 -0.000018 -0.000016 0.000015 -0.7625 -0.5878 -0.0127
294 1 1.8749 1.8750 5.6250 -0.000213 -0.000086 -0.000036 -0.7640 -0.5896 -0.0000
295 1 1.8750 1.8750 9.3750 -0.000021 0.000015 -0.000075 -0.7649 -0.5900 0.0139
296 1 1.8749 1.8750 13.1250 -0.000134 0.000049 0.000021 -0.6725 -0.5073 0.0977
297 1 1.8751 5.6251 -13.1249 0.000103 0.000120 0.000264 -1.1438 -0.5990 0.3763
298 1 1.8750 5.6250 -9.3751 0.000080 -0.000007 -0.000139 -0.8014 -0.5973 0.0102
299 1 1.8750 5.6250 -5.6250 0.000003 0.000063 0.000028 -1.1474 -0.5979 -0.3919
300 1 1.8750 5.6251 -1.8751 -0.000048 0.000100 -0.000183 5.9993 -0.5997 -0.3789
301 1 1.8751 5.6250 1.8750 0.000165 0.000067 -0.000015 5.6357 -0.5966 -0.0259
302 1 1.8750 5.6251 5.6250 -0.000060 0.000125 0.000056 5.6286 -0.6012 -0.0009
303 1 1.8750 5.6250 9.3750 0.000086 -0.000028 0.000055 5.6350 -0.5946 0.0253
304 1 1.8750 5.6250 13.1251 0.000015 -0.000064 0.000115 5.9976 -0.5959 0.3873
305 1 1.8751 9.3750 -13.1250 0.000172 -0.000004 0.000071 5.5554 -0.4497 0.0942
306 1 1.8751 9.3750 -9.3750 0.000153 -0.000081 -0.000074 5.6362 -0.5340 0.0050
307 1 1.8750 9.3750 -5.6250 0.000060 0.000024 0.000059 5.5556 -0.4549 -0.1031
308 1 1.8750 9.3750 -1.8750 0.000069 -0.000053 -0.000040 5.1926 -0.0914 -0.0943
309 1 1.8750 9.3750 1.8751 0.000057 0.000069 0.000128 5.1088 -0.0064 -0.0179
310 1 1.8750 9.3750 5.6250 0.000017 -0.000006 -0.000074 5.1017 -0.0001 0.0075
311 1 1.8751 9.3750 9.3751 0.000132 -0.000034 0.000160 5.1066 -0.0070 0.0040
312 1 1.8750 9.3749 13.1250 -0.000071 -0.000206 -0.000035 5.1956 -0.0897 0.1044
313 1 1.8750 13.1251 -13.1250 -0.000012 0.000116 0.000025 5.6441 0.5537 0.0063
314 1 1.8750 13.1250 -9.3750 -0.000069 -0.000008 0.000090 5.6514 0.5483 -0.0012
315 1 1.8750 13.1250 -5.6250 0.000003 -0.000043 0.000073 5.6472 0.5625 -0.0069
316 1 1.8750 13.1250 -1.8750 -0.000015 -0.000086 -0.000014 5.6341 0.5883 -0.0043
317 1 1.8750 13.1250 1.8750 0.000016 0.000019 -0.000019 5.6238 0.5976 0.0032
318 1 1.8750 13.1249 5.6251 0.000068 -0.000137 0.000148 5.6262 0.5980 -0.0038
319 1 1.8749 13.1249 9.3750 -0.000108 -0.000115 0.000080 5.6294 0.5988 -0.0001
320 1 1.8750 13.1249 13.1250 0.000090 -0.000117 -0.000001 5.6321 0.5862 0.0078
321 1 5.6250 -13.1250 -13.1251 -0.000062 -0.000064 -0.000127 5.0577 -6.2942 0.0009
322 1 5.6250 -13.1250 -9.3750 0.000084 0.000078 -0.000038 5.0534 -6.2941 -0.0010
323 1 5.6250 -13.1250 -5.6250 0.000103 0.000082 -0.000001 5.0549 -6.2958 -0.0013
324 1 5.6251 -13.1250 -1.8750 0.000129 0.000018 -0.000044 5.0547 -6.2903 0.0013
325 1 5.6250 -13.1250 1.8750 -0.000033 0.000030 -0.000007 5.0565 -6.2947 -0.0016
326 1 5.6250 -13.1251 5.6250 0.000028 -0.000144 -0.000060 5.0553 -6.2935 0.0022
327 1 5.6250 -13.1251 9.3750 0.000041 -0.000143 0.000023 5.0563 -6.2915 -0.0046
328 1 5.6250 -13.1250 13.1249 -0.000002 -0.000101 -0.000149 5.0575 -6.2893 0.0033
329 1 5.6250 -9.3751 -13.1250 0.000008 -0.000127 -0.000064 5.0555 0.1082 0.0006
330 1 5.6251 -9.3750 -9.3750 0.000114 0.000001 -0.000080 5.0543 0.1058 -0.0005
331 1 5.6250 -9.3750 -5.6251 -0.000022 -0.000083 -0.000104 5.0568 0.1101 0.0030
332 1 5.6249 -9.3749 -1.8750 -0.000109 0.000171 0.000060 5.0542 0.0991 -0.0043
333 1 5.6251 -9.3750 1.8750 0.000129 -0.000075 -0.000011 5.0529 0.1102 0.0032
334 1 5.6250 -9.3751 5.6250 -0.000072 -0.000159 0.000092 5.0551 0.1067 -0.0023
335 1 5.6250 -9.3750 9.3750 0.000037 -0.000055 0.000046 5.0541 0.1082 -0.0001
336 1 5.6251 -9.3749 13.1250 0.000111 0.000110 -0.000007 5.0535 0.1001 0.0000
337 1 5.6251 -5.6250 -13.1250 0.000189 -0.000043 -0.000004 5.0552 -0.0002 0.0017
338 1 5.6250 -5.6250 -9.3750 0.000060 -0.000099 0.000072 5.0555 0.0033 -0.0035
339 1 5.6250 -5.6250 -5.6250 0.000063 0.000005 -0.000048 5.0551 -0.0022 0.0067
340 1 5.6250 -5.6250 -1.8749 -0.000049 -0.000096 0.000204 5.0557 0.0026 -0.0079
341 1 5.6250 -5.6250 1.8750 -0.000026 0.000061 -0.000004 5.0559 -0.0037 0.0040
342 1 5.6250 -5.6251 5.6250 -0.000077 -0.000107 0.000007 5.0571 0.0017 0.0009
343 1 5.6250 -5.6249 9.3750 -0.000018 0.000155 0.000055 5.0558 -0.0033 -0.0016
344 1 5.6250 -5.6250 13.1250 -0.000051 -0.000022 0.000006 5.0555 0.0021 0.0007
345 1 5.6250 -1.8750 -13.1251 0.000082 0.000035 -0.000125 5.0546 -0.0255 0.0169
346 1 5.6250 -1.8750 -9.3750 0.000040 0.000003 0.000057 5.0547 -0.0020 -0.0032
347 1 5.6250 -1.8750 -5.6250 0.000098 -0.000033 0.000052 5.0537 -0.0232 -0.0113
348 1 5.6250 -1.8751 -1.8750 0.000036 -0.000208 0.000079 5.0517 -0.0775 -0.0137
349 1 5.6251 -1.8750 1.8750 0.000123 -0.000023 0.000010 5.0540 -0.1009 -0.0024
350 1 5.6250 -1.8750 5.6249 0.000002 0.000067 -0.000203 5.0558 -0.1133 0.0081
351 1 5.6250 -1.8749 9.3750 -0.000071 0.000145 0.000070 5.0561 -0.1054 -0.0063
352 1 5.6250 -1.8750 13.1250 -0.000007 -0.000024 -0.000017 5.0553 -0.0791 0.0114
353 1 5.6250 1.8750 -13.1250 -0.000079 0.000031 -0.000007 5.0538 -0.4793 0.3874
354 1 5.6250 1.8750 -9.3750 -0.000033 -0.000002 -0.000010 5.0568 -0.1321 0.0003
355 1 5.6250 1.8750 -5.6250 0.000082 -0.000027 -0.000001 5.0518 -0.4778 -0.3877
356 1 5.6250 1.8750 -1.8751 0.000035 -0.000039 -0.000135 5.0527 6.6628 -0.3813
357 1 5.6250 1.8751 1.8750 0.000082 0.000168 -0.000035 5.0536 6.3021 -0.0226
358 1 5.6250 1.8749 5.6251 0.000044 -0.000154 0.000145 5.0507 6.2962 -0.0077
359 1 5.6250 1.8751 9.3749 0.000015 0.000145 -0.000124 5.0547 6.3054 0.0328
360 1 5.6250 1.8751 13.1250 0.000083 0.000144 0.000097 5.0517 6.6634 0.3795
361 1 5.6251 5.6250 -13.1251 0.000208 0.000025 -0.000115 5.0540 6.2931 -7.0888
362 1 5.6250 5.6249 -9.3751 -0.000062 -0.000124 -0.000157 5.0575 6.2947 -0.0011
363 1 5.6250 5.6250 -5.6251 -0.000024 0.000062 -0.000242 5.0558 6.2915 7.0885
ITEM: TIMESTEP
10
ITEM: NUMBER OF ATOMS
363
ITEM: BOX BOUNDS pp pp pp
-15.000000 15.000000
-15.000000 15.000000
-15.000000 15.000000
ITEM: ATOMS id type xu yu zu vx vy vz fx fy fz
1 1 -13.1254 -13.1252 -13.1252 -0.000168 -0.000040 -0.000040 -5.0255 0.0257 0.0235
2 1 -13.1254 -13.1242 -9.3750 -0.000166 0.000146 0.000005 -5.0134 -0.0485 -0.0189
3 1 -13.1255 -13.1250 -5.6253 -0.000178 -0.000009 -0.000050 -5.0397 -0.0366 0.0277
4 1 -13.1251 -13.1250 -1.8747 -0.000105 -0.000002 0.000046 -5.0548 0.0013 -0.0269
5 1 -13.1259 -13.1247 1.8751 -0.000254 0.000046 0.000010 -5.0425 -0.0228 0.0179
6 1 -13.1259 -13.1238 5.6253 -0.000247 0.000218 0.000058 -5.0095 -0.1039 -0.0030