ITEM: TIMESTEP
0
ITEM: NUMBER OF ATOMS
363
ITEM: BOX BOUNDS pp pp pp
-15.000000 15.000000
-15.000000 15.000000
-15.000000 15.000000
ITEM: ATOMS id type xu yu zu vx vy vz fx fy fz
1 1 -13.1289 -13.1250 -13.1250 -1.553102 -0.000000 0.000000 -4.9095 -0.0000 0.0000
2 1 -13.1289 -13.1250 -9.3750 -1.553102 0.000000 0.000000 -4.9095 -0.0000 0.0000
3 1 -13.1289 -13.1250 -5.6250 -1.553102 -0.000000 0.000000 -4.9095 0.0000 0.0000
4 1 -13.1289 -13.1250 -1.8750 -1.553102 0.000000 -0.000000 -4.9095 0.0000 0.0000
5 1 -13.1289 -13.1250 1.8750 -1.553102 -0.000000 -0.000000 -4.9095 0.0000 0.0000
6 1 -13.1289 -13.1250 5.6250 -1.553102 -0.000000 0.000000 -4.9095 0.0000 0.0000
7 1 -13.1289 -13.1250 9.3750 -1.553102 0.000000 0.000000 -4.9095 0.0000 0.0000
8 1 -13.1289 -13.1250 13.1250 -1.553102 0.000000 -0.000000 -4.9095 0.0000 0.0000
9 1 -13.1289 -9.3750 -13.1250 -1.553102 0.000000 0.000000 -4.9095 0.0000 0.0000
10 1 -13.1289 -9.3750 -9.3750 -1.553102 -0.000000 -0.000000 -4.9095 0.0000 0.0000
11 1 -13.1289 -9.3750 -5.6250 -1.553102 -0.000000 0.000000 -4.9095 -0.0000 0.0000
12 1 -13.1289 -9.3750 -1.8750 -1.553102 -0.000000 0.000000 -4.9095 -0.0000 0.0000
13 1 -13.1289 -9.3750 1.8750 -1.553102 -0.000000 0.000000 -4.9095 -0.0000 0.0000
14 1 -13.1289 -9.3750 5.6250 -1.553102 -0.000000 -0.000000 -4.9095 -0.0000 0.0000
15 1 -13.1289 -9.3750 9.3750 -1.553102 -0.000000 0.000000 -4.9095 -0.0000 0.0000
16 1 -13.1289 -9.3750 13.1250 -1.553102 0.000000 -0.000000 -4.9095 -0.0000 0.0000
17 1 -13.1289 -5.6250 -13.1250 -1.553102 0.000000 -0.000000 -4.9095 0.0000 0.0000
18 1 -13.1289 -5.6250 -9.3750 -1.553102 -0.000000 -0.000000 -4.9095 0.0000 0.0000
19 1 -13.1289 -5.6250 -5.6250 -1.553102 0.000000 -0.000000 -4.9095 0.0000 0.0000
20 1 -13.1289 -5.6250 -1.8750 -1.553102 0.000000 0.000000 -4.9095 0.0000 0.0000
21 1 -13.1289 -5.6250 1.8750 -1.553102 -0.000000 0.000000 -4.9095 0.0000 0.0000
22 1 -13.1289 -5.6250 5.6250 -1.553102 0.000000 0.000000 -4.9095 0.0000 0.0000
23 1 -13.1289 -5.6250 9.3750 -1.553102 -0.000000 0.000000 -4.9095 -0.0000 0.0000
24 1 -13.1289 -5.6250 13.1250 -1.553102 0.000000 -0.000000 -4.9095 -0.0000 0.0000
25 1 -13.1289 -1.8750 -13.1250 -1.553102 0.000000 0.000000 -4.9095 0.0000 0.0000
26 1 -13.1289 -1.8750 -9.3750 -1.553102 -0.000000 -0.000000 -4.9095 0.0000 0.0000
27 1 -13.1289 -1.8750 -5.6250 -1.553102 0.000000 -0.000000 -4.9095 0.0000 0.0000
28 1 -13.1289 -1.8750 -1.8750 -1.553102 -0.000000 0.000000 -4.9095 0.0000 0.0000
29 1 -13.1289 -1.8750 1.8750 -1.553102 0.000000 0.000000 -4.9095 0.0000 0.0000
30 1 -13.1289 -1.8750 5.6250 -1.553102 -0.000000 -0.000000 -4.9095 0.0000 0.0000
31 1 -13.1289 -1.8750 9.3750 -1.553102 0.000000 -0.000000 -4.9095 -0.0000 0.0000
32 1 -13.1289 -1.8750 13.1250 -1.553102 -0.000000 -0.000000 -4.9095 -0.0000 0.0000
33 1 -13.1289 1.8750 -13.1250 -1.553102 0.000000 -0.000000 -4.9095 0.0000 0.0000
34 1 -13.1289 1.8750 -9.3750 -1.553102 -0.000000 -0.000000 -4.9095 0.0000 0.0000
35 1 -13.1289 1.8750 -5.6250 -1.553102 -0.000000 -0.000000 -4.9095 0.0000 0.0000
36 1 -13.1289 1.8750 -1.8750 -1.553102 -0.000000 0.000000 -4.9095 0.0000 0.0000
37 1 -13.1289 1.8750 1.8750 -1.553102 0.000000 0.000000 -4.9095 0.0000 0.0000
38 1 -13.1289 1.8750 5.6250 -1.553102 -0.000000 0.000000 -4.9095 0.0000 0.0000
39 1 -13.1289 1.8750 9.3750 -1.553102 -0.000000 0.000000 -4.9095 -0.0000 0.0000
40 1 -13.1289 1.8750 13.1250 -1.553102 0.000000 -0.000000 -4.9095 -0.0000 0.0000
41 1 -13.1289 5.6250 -13.1250 -1.553102 -0.000000 -0.000000 -4.9095 0.0000 0.0000
42 1 -13.1289 5.6250 -9.3750 -1.553102 -0.000000 0.000000 -4.9095 0.0000 0.0000
43 1 -13.1289 5.6250 -5.6250 -1.553102 -0.000000 -0.000000 -4.9095 0.0000 0.0000
44 1 -13.1289 5.6250 -1.8750 -1.553102 -0.000000 0.000000 -4.9095 0.0000 0.0000
45 1 -13.1289 5.6250 1.8750 -1.553102 -0.000000 0.000000 -4.9095 0.0000 0.0000
46 1 -13.1289 5.6250 5.6250 -1.553102 -0.000000 0.000000 -4.9095 0.0000 0.0000
47 1 -13.1289 5.6250 9.3750 -1.553102 0.000000 -0.000000 -4.9095 -0.0000 0.0000
48 1 -13.1289 5.6250 13.1250 -1.553102 -0.000000 0.000000 -4.9095 -0.0000 0.0000
49 1 -13.1289 9.3750 -13.1250 -1.553102 0.000000 0.000000 -4.9095 0.0000 0.0000
50 1 -13.1289 9.3750 -9.3750 -1.553102 -0.000000 0.000000 -4.9095 0.0000 0.0000
51 1 -13.1289 9.3750 -5.6250 -1.553102 0.000000 0.000000 -4.9095 -0.0000 0.0000
52 1 -13.1289 9.3750 -1.8750 -1.553102 0.000000 -0.000000 -4.9095 -0.0000 0.0000
53 1 -13.1289 9.3750 1.8750 -1.553102 0.000000 -0.000000 -4.9095 -0.0000 0.0000
54 1 -13.1289 9.3750 5.6250 -1.553102 -0.000000 0.000000 -4.9095 -0.0000 0.0000
55 1 -13.1289 9.3750 9.3750 -1.553102 0.000000 -0.000000 -4.9095 -0.0000 0.0000
56 1 -13.1289 9.3750 13.1250 -1.553102 0.000000 0.000000 -4.9095 -0.0000 0.0000
57 1 -13.1289 13.1250 -13.1250 -1.553102 -0.000000 0.000000 -4.9095 -0.0000 0.0000
58 1 -13.1289 13.1250 -9.3750 -1.553102 -0.000000 -0.000000 -4.9095 -0.0000 0.0000
59 1 -13.1289 13.1250 -5.6250 -1.553102 -0.000000 -0.000000 -4.9095 0.0000 0.0000
60 1 -13.1289 13.1250 -1.8750 -1.553102 0.000000 -0.000000 -4.9095 0.0000 0.0000
61 1 -13.1289 13.1250 1.8750 -1.553102 0.000000 -0.000000 -4.9095 0.0000 0.0000
62 1 -13.1289 13.1250 5.6250 -1.553102 -0.000000 0.000000 -4.9095 0.0000 0.0000
63 1 -13.1289 13.1250 9.3750 -1.553102 0.000000 0.000000 -4.9095 0.0000 0.0000
64 1 -13.1289 13.1250 13.1250 -1.553102 0.000000 -0.000000 -4.9095 0.0000 0.0000
65 1 -9.3748 -13.1250 -13.1250 0.038848 -0.000000 0.000000 0.0487 -0.0000 0.0000
66 1 -9.3748 -13.1250 -9.3750 0.038848 -0.000000 0.000000 0.0487 -0.0000 0.0000
67 1 -9.3748 -13.1250 -5.6250 0.038848 -0.000000 0.000000 0.0487 -0.0000 0.0000
68 1 -9.3748 -13.1250 -1.8750 0.038848 -0.000000 -0.000000 0.0487 -0.0000 0.0000
69 1 -9.3748 -13.1250 1.8750 0.038848 -0.000000 -0.000000 0.0487 -0.0000 0.0000
70 1 -9.3748 -13.1250 5.6250 0.038848 -0.000000 -0.000000 0.0487 -0.0000 0.0000
71 1 -9.3748 -13.1250 9.3750 0.038848 -0.000000 -0.000000 0.0487 -0.0000 0.0000
72 1 -9.3748 -13.1250 13.1250 0.038848 -0.000000 0.000000 0.0487 -0.0000 0.0000
73 1 -9.3748 -9.3750 -13.1250 0.038847 -0.000000 0.000000 0.0487 -0.0000 0.0000
74 1 -9.3748 -9.3750 -9.3750 0.038847 -0.000000 0.000000 0.0487 -0.0000 0.0000
75 1 -9.3748 -9.3750 -5.6250 0.038847 -0.000000 -0.000000 0.0487 -0.0000 0.0000
76 1 -9.3748 -9.3750 -1.8750 0.038847 -0.000000 -0.000000 0.0487 -0.0000 0.0000
77 1 -9.3748 -9.3750 1.8750 0.038847 -0.000000 -0.000000 0.0487 -0.0000 0.0000
78 1 -9.3748 -9.3750 5.6250 0.038847 -0.000000 0.000000 0.0487 -0.0000 0.0000
79 1 -9.3748 -9.3750 9.3750 0.038847 -0.000000 0.000000 0.0487 -0.0000 0.0000
80 1 -9.3748 -9.3750 13.1250 0.038847 -0.000000 0.000000 0.0487 -0.0000 0.0000
81 1 -9.3748 -5.6250 -13.1250 0.038847 -0.000000 0.000000 0.0487 0.0000 0.0000
82 1 -9.3748 -5.6250 -9.3750 0.038847 0.000000 0.000000 0.0487 0.0000 0.0000
83 1 -9.3748 -5.6250 -5.6250 0.038847 -0.000000 -0.000000 0.0487 0.0000 0.0000
84 1 -9.3748 -5.6250 -1.8750 0.038847 -0.000000 0.000000 0.0487 0.0000 0.0000
85 1 -9.3748 -5.6250 1.8750 0.038847 0.000000 -0.000000 0.0487 0.0000 0.0000
86 1 -9.3748 -5.6250 5.6250 0.038847 0.000000 0.000000 0.0487 0.0000 0.0000
87 1 -9.3748 -5.6250 9.3750 0.038847 0.000000 0.000000 0.0487 -0.0000 0.0000
88 1 -9.3748 -5.6250 13.1250 0.038847 -0.000000 0.000000 0.0487 -0.0000 0.0000
89 1 -9.3748 -1.8750 -13.1250 0.038847 0.000000 -0.000000 0.0487 0.0000 -0.0000
90 1 -9.3748 -1.8750 -9.3750 0.038847 0.000000 -0.000000 0.0487 0.0000 0.0000
91 1 -9.3748 -1.8750 -5.6250 0.038847 0.000000 0.000000 0.0487 0.0000 0.0000
92 1 -9.3748 -1.8750 -1.8750 0.038847 0.000000 0.000000 0.0487 0.0000 0.0000
93 1 -9.3748 -1.8750 1.8750 0.038847 0.000000 0.000000 0.0487 0.0000 0.0000
94 1 -9.3748 -1.8750 5.6250 0.038847 0.000000 -0.000000 0.0487 0.0000 0.0000
95 1 -9.3748 -1.8750 9.3750 0.038847 0.000000 -0.000000 0.0487 0.0000 -0.0000
96 1 -9.3748 -1.8750 13.1250 0.038847 0.000000 -0.000000 0.0487 0.0000 -0.0000
97 1 -9.3748 1.8750 -13.1250 0.038847 0.000000 -0.000000 0.0487 0.0000 -0.0000
98 1 -9.3748 1.8750 -9.3750 0.038847 0.000000 0.000000 0.0487 0.0000 -0.0000
99 1 -9.3748 1.8750 -5.6250 0.038847 0.000000 0.000000 0.0487 0.0000 0.0000
100 1 -9.3748 1.8750 -1.8750 0.038848 0.000000 0.000000 0.0487 0.0000 0.0000
101 1 -9.3748 1.8750 1.8750 0.038848 0.000000 0.000000 0.0487 0.0000 0.0000
102 1 -9.3748 1.8750 5.6250 0.038848 0.000000 -0.000000 0.0487 0.0000 0.0000
103 1 -9.3748 1.8750 9.3750 0.038848 0.000000 -0.000000 0.0487 0.0000 -0.0000
104 1 -9.3748 1.8750 13.1250 0.038848 0.000000 -0.000000 0.0487 0.0000 -0.0000
105 1 -9.3748 5.6250 -13.1250 0.038848 0.000000 -0.000000 0.0487 0.0000 -0.0000
106 1 -9.3748 5.6250 -9.3750 0.038848 0.000000 0.000000 0.0487 0.0000 0.0000
107 1 -9.3748 5.6250 -5.6250 0.038848 0.000000 0.000000 0.0487 0.0000 0.0000
108 1 -9.3748 5.6250 -1.8750 0.038849 0.000000 0.000000 0.0487 0.0000 0.0000
109 1 -9.3748 5.6250 1.8750 0.038849 0.000000 0.000000 0.0487 0.0000 0.0000
110 1 -9.3748 5.6250 5.6250 0.038849 0.000000 -0.000000 0.0487 0.0000 0.0000
111 1 -9.3748 5.6250 9.3750 0.038849 0.000000 -0.000000 0.0487 0.0000 -0.0000
112 1 -9.3748 5.6250 13.1250 0.038849 0.000000 -0.000000 0.0487 0.0000 -0.0000
113 1 -9.3748 9.3750 -13.1250 0.038849 0.000000 -0.000000 0.0487 0.0000 -0.0000
114 1 -9.3748 9.3750 -9.3750 0.038849 0.000000 -0.000000 0.0487 0.0000 0.0000
115 1 -9.3748 9.3750 -5.6250 0.038849 0.000000 0.000000 0.0487 0.0000 0.0000
116 1 -9.3748 9.3750 -1.8750 0.038850 0.000000 0.000000 0.0487 0.0000 0.0000
117 1 -9.3748 9.3750 1.8750 0.038850 0.000000 0.000000 0.0487 0.0000 0.0000
118 1 -9.3748 9.3750 5.6250 0.038850 -0.000000 -0.000000 0.0487 -0.0000 0.0000
119 1 -9.3748 9.3750 9.3750 0.038850 0.000000 -0.000000 0.0487 0.0000 -0.0000
120 1 -9.3748 9.3750 13.1250 0.038850 0.000000 -0.000000 0.0487 0.0000 -0.0000
121 1 -9.3748 13.1250 -13.1250 0.038849 -0.000000 -0.000000 0.0487 -0.0000 -0.0000
122 1 -9.3748 13.1250 -9.3750 0.038849 -0.000000 -0.000000 0.0487 -0.0000 0.0000
123 1 -9.3748 13.1250 -5.6250 0.038849 -0.000000 0.000000 0.0487 -0.0000 0.0000
124 1 -9.3748 13.1250 -1.8750 0.038849 -0.000000 0.000000 0.0487 -0.0000 0.0000
125 1 -9.3748 13.1250 1.8750 0.038849 -0.000000 0.000000 0.0487 -0.0000 0.0000
126 1 -9.3748 13.1250 5.6250 0.038849 -0.000000 0.000000 0.0487 -0.0000 0.0000
127 1 -9.3748 13.1250 9.3750 0.038849 -0.000000 -0.000000 0.0487 -0.0000 -0.0000
128 1 -9.3748 13.1250 13.1250 0.038849 -0.000000 -0.000000 0.0487 -0.0000 -0.0000
129 1 -5.6250 -13.1250 -13.1250 0.000754 0.000000 -0.000000 0.0048 0.0000 -0.0000
130 1 -5.6250 -13.1250 -9.3750 0.000753 0.000000 -0.000000 0.0048 0.0000 -0.0000
131 1 -5.6250 -13.1250 -5.6250 0.000754 0.000000 0.000000 0.0048 0.0000 0.0000
132 1 -5.6250 -13.1250 -1.8750 0.000754 0.000000 0.000000 0.0048 0.0000 0.0000
133 1 -5.6250 -13.1250 1.8750 0.000754 0.000000 0.000000 0.0048 0.0000 0.0000
134 1 -5.6250 -13.1250 5.6250 0.000754 -0.000000 -0.000000 0.0048 -0.0000 0.0000
135 1 -5.6250 -13.1250 9.3750 0.000754 0.000000 -0.000000 0.0048 0.0000 -0.0000
136 1 -5.6250 -13.1250 13.1250 0.000754 0.000000 -0.000000 0.0048 0.0000 -0.0000
137 1 -5.6250 -9.3750 -13.1250 0.000979 -0.000005 -0.000000 0.0063 -0.0000 0.0000
138 1 -5.6250 -9.3750 -9.3750 0.000979 -0.000005 0.000000 0.0063 -0.0000 0.0000
139 1 -5.6250 -9.3750 -5.6250 0.000979 -0.000005 -0.000000 0.0063 -0.0000 0.0000
140 1 -5.6250 -9.3750 -1.8750 0.000979 -0.000005 0.000000 0.0063 -0.0000 0.0000
141 1 -5.6250 -9.3750 1.8750 0.000979 -0.000005 -0.000000 0.0063 -0.0000 0.0000
142 1 -5.6250 -9.3750 5.6250 0.000979 -0.000005 0.000000 0.0063 -0.0000 0.0000
143 1 -5.6250 -9.3750 9.3750 0.000979 -0.000005 0.000000 0.0063 -0.0000 0.0000
144 1 -5.6250 -9.3750 13.1250 0.000979 -0.000005 0.000000 0.0063 -0.0000 0.0000
145 1 -5.6250 -5.6250 -13.1250 0.000972 -0.000000 -0.000000 0.0062 -0.0000 -0.0000
146 1 -5.6250 -5.6250 -9.3750 0.000972 -0.000000 -0.000000 0.0062 -0.0000 0.0000
147 1 -5.6250 -5.6250 -5.6250 0.000972 -0.000000 0.000000 0.0062 -0.0000 0.0000
148 1 -5.6250 -5.6250 -1.8750 0.000972 -0.000000 0.000000 0.0062 -0.0000 0.0000
149 1 -5.6250 -5.6250 1.8750 0.000973 -0.000000 0.000000 0.0062 -0.0000 0.0000
150 1 -5.6250 -5.6250 5.6250 0.000973 0.000000 -0.000000 0.0062 0.0000 0.0000
151 1 -5.6250 -5.6250 9.3750 0.000973 -0.000000 -0.000000 0.0062 -0.0000 -0.0000
152 1 -5.6250 -5.6250 13.1250 0.000972 -0.000000 -0.000000 0.0062 -0.0000 -0.0000
153 1 -5.6250 -1.8750 -13.1250 0.000974 0.000002 -0.000001 0.0063 0.0000 -0.0000
154 1 -5.6250 -1.8750 -9.3750 0.000973 0.000001 -0.000000 0.0062 0.0000 -0.0000
155 1 -5.6250 -1.8750 -5.6250 0.000974 0.000002 0.000001 0.0063 0.0000 0.0000
156 1 -5.6250 -1.8750 -1.8750 0.000977 0.000004 0.000001 0.0063 0.0000 0.0000
157 1 -5.6250 -1.8750 1.8750 0.000978 0.000005 0.000000 0.0063 0.0000 0.0000
158 1 -5.6250 -1.8750 5.6250 0.000979 0.000005 -0.000000 0.0063 0.0000 0.0000
159 1 -5.6250 -1.8750 9.3750 0.000978 0.000005 -0.000000 0.0063 0.0000 -0.0000
160 1 -5.6250 -1.8750 13.1250 0.000977 0.000004 -0.000001 0.0063 0.0000 -0.0000
161 1 -5.6250 1.8750 -13.1250 0.000925 0.000005 -0.000000 0.0059 0.0000 -0.0000
162 1 -5.6250 1.8750 -9.3750 0.000982 0.000006 0.000000 0.0063 0.0000 -0.0000
163 1 -5.6250 1.8750 -5.6250 0.000925 0.000005 0.000000 0.0059 0.0000 0.0000
164 1 -5.6250 1.8750 -1.8750 0.000807 0.000000 0.000000 0.0052 0.0000 0.0000
165 1 -5.6250 1.8750 1.8750 0.000752 -0.000000 0.000001 0.0048 -0.0000 0.0000
166 1 -5.6250 1.8750 5.6250 0.000754 -0.000000 0.000000 0.0048 -0.0000 0.0000
167 1 -5.6250 1.8750 9.3750 0.000752 -0.000000 -0.000001 0.0048 -0.0000 -0.0000
168 1 -5.6250 1.8750 13.1250 0.000807 0.000000 -0.000000 0.0052 0.0000 -0.0000
169 1 -5.6250 5.6250 -13.1250 0.000638 -0.000000 0.000002 0.0041 -0.0000 0.0000
170 1 -5.6250 5.6250 -9.3750 0.000759 -0.000000 -0.000000 0.0049 -0.0000 0.0000
171 1 -5.6250 5.6250 -5.6250 0.000638 -0.000000 -0.000002 0.0041 -0.0000 -0.0000
172 1 -5.6250 5.6250 -1.8750 0.000334 -0.000000 -0.000002 0.0021 -0.0000 -0.0000
173 1 -5.6250 5.6250 1.8750 0.000216 -0.000000 0.000002 0.0014 -0.0000 0.0000
174 1 -5.6250 5.6250 5.6250 0.000218 -0.000000 -0.000000 0.0014 -0.0000 0.0000
175 1 -5.6250 5.6250 9.3750 0.000216 -0.000000 -0.000002 0.0014 -0.0000 -0.0000
176 1 -5.6250 5.6250 13.1250 0.000334 -0.000000 0.000002 0.0021 -0.0000 0.0000
177 1 -5.6250 9.3750 -13.1250 0.000159 -0.000005 -0.000000 0.0010 -0.0000 -0.0000
178 1 -5.6250 9.3750 -9.3750 0.000215 -0.000006 0.000000 0.0014 -0.0000 -0.0000
179 1 -5.6250 9.3750 -5.6250 0.000159 -0.000005 0.000000 0.0010 -0.0000 0.0000
180 1 -5.6250 9.3750 -1.8750 0.000040 -0.000000 0.000000 0.0003 -0.0000 0.0000
181 1 -5.6250 9.3750 1.8750 -0.000015 0.000000 0.000001 -0.0001 0.0000 0.0000
182 1 -5.6250 9.3750 5.6250 -0.000013 0.000000 0.000000 -0.0001 0.0000 0.0000
183 1 -5.6250 9.3750 9.3750 -0.000015 0.000000 -0.000001 -0.0001 0.0000 -0.0000
184 1 -5.6250 9.3750 13.1250 0.000040 -0.000000 -0.000000 0.0003 -0.0000 -0.0000
185 1 -5.6250 13.1250 -13.1250 0.000214 0.000004 -0.000001 0.0014 0.0000 -0.0000
186 1 -5.6250 13.1250 -9.3750 0.000213 0.000004 -0.000000 0.0014 0.0000 0.0000
187 1 -5.6250 13.1250 -5.6250 0.000214 0.000004 0.000001 0.0014 0.0000 0.0000
188 1 -5.6250 13.1250 -1.8750 0.000216 0.000002 0.000001 0.0014 0.0000 0.0000
189 1 -5.6250 13.1250 1.8750 0.000218 0.000001 0.000000 0.0014 0.0000 0.0000
190 1 -5.6250 13.1250 5.6250 0.000218 0.000000 0.000000 0.0014 0.0000 0.0000
191 1 -5.6250 13.1250 9.3750 0.000218 0.000001 -0.000000 0.0014 0.0000 -0.0000
192 1 -5.6250 13.1250 13.1250 0.000216 0.000002 -0.000001 0.0014 0.0000 -0.0000
193 1 -1.8750 -13.1250 -13.1250 -0.017999 0.007433 -0.000001 -0.0681 0.0240 -0.0000
194 1 -1.8750 -13.1250 -9.3750 -0.018000 0.007434 -0.000000 -0.0681 0.0240 -0.0000
195 1 -1.8750 -13.1250 -5.6250 -0.017999 0.007433 0.000001 -0.0681 0.0240 0.0000
196 1 -1.8750 -13.1250 -1.8750 -0.017997 0.007430 0.000001 -0.0681 0.0240 0.0000
197 1 -1.8750 -13.1250 1.8750 -0.017996 0.007429 0.000000 -0.0681 0.0240 0.0000
198 1 -1.8750 -13.1250 5.6250 -0.017996 0.007429 0.000000 -0.0681 0.0240 0.0000
199 1 -1.8750 -13.1250 9.3750 -0.017996 0.007429 -0.000000 -0.0681 0.0240 -0.0000
200 1 -1.8750 -13.1250 13.1250 -0.017997 0.007430 -0.000001 -0.0681 0.0240 -0.0000
201 1 -1.8750 -9.3750 -13.1250 -0.001034 0.000060 -0.000000 -0.0066 0.0004 -0.0000
202 1 -1.8750 -9.3750 -9.3750 -0.001034 0.000060 -0.000000 -0.0066 0.0004 0.0000
203 1 -1.8750 -9.3750 -5.6250 -0.001034 0.000060 0.000000 -0.0066 0.0004 0.0000
204 1 -1.8750 -9.3750 -1.8750 -0.001034 0.000060 0.000000 -0.0066 0.0004 0.0000
205 1 -1.8750 -9.3750 1.8750 -0.001034 0.000060 0.000000 -0.0066 0.0004 0.0000
206 1 -1.8750 -9.3750 5.6250 -0.001034 0.000060 0.000000 -0.0066 0.0004 0.0000
207 1 -1.8750 -9.3750 9.3750 -0.001034 0.000060 -0.000000 -0.0066 0.0004 -0.0000
208 1 -1.8750 -9.3750 13.1250 -0.001034 0.000060 -0.000000 -0.0066 0.0004 -0.0000
209 1 -1.8750 -5.6250 -13.1250 -0.000966 -0.000004 -0.000001 -0.0062 -0.0000 -0.0000
210 1 -1.8750 -5.6250 -9.3750 -0.000967 -0.000006 -0.000000 -0.0062 -0.0000 0.0000
211 1 -1.8750 -5.6250 -5.6250 -0.000966 -0.000004 0.000001 -0.0062 -0.0000 0.0000
212 1 -1.8750 -5.6250 -1.8750 -0.000964 -0.000002 0.000001 -0.0062 -0.0000 0.0000
213 1 -1.8750 -5.6250 1.8750 -0.000963 -0.000000 0.000000 -0.0062 -0.0000 0.0000
214 1 -1.8750 -5.6250 5.6250 -0.000962 -0.000000 0.000000 -0.0062 -0.0000 0.0000
215 1 -1.8750 -5.6250 9.3750 -0.000963 -0.000000 -0.000000 -0.0062 -0.0000 -0.0000
216 1 -1.8750 -5.6250 13.1250 -0.000964 -0.000002 -0.000001 -0.0062 -0.0000 -0.0000
217 1 -1.8750 -1.8750 -13.1250 -0.000982 -0.000008 -0.000007 -0.0063 -0.0001 -0.0000
218 1 -1.8750 -1.8750 -9.3750 -0.000961 0.000012 -0.000000 -0.0062 0.0001 -0.0000
219 1 -1.8750 -1.8750 -5.6250 -0.000982 -0.000008 0.000007 -0.0063 -0.0001 0.0000
220 1 -1.8750 -1.8750 -1.8750 -0.001019 -0.000046 0.000007 -0.0065 -0.0003 0.0000
221 1 -1.8750 -1.8750 1.8750 -0.001037 -0.000063 0.000003 -0.0067 -0.0004 0.0000
222 1 -1.8750 -1.8750 5.6250 -0.001034 -0.000061 0.000000 -0.0066 -0.0004 0.0000
223 1 -1.8750 -1.8750 9.3750 -0.001037 -0.000063 -0.000003 -0.0067 -0.0004 -0.0000
224 1 -1.8750 -1.8750 13.1250 -0.001019 -0.000046 -0.000007 -0.0065 -0.0003 -0.0000
225 1 -1.8750 1.8750 -13.1250 -0.004980 -0.001840 0.001803 -0.0203 -0.0060 0.0057
226 1 -1.8750 1.8750 -9.3750 -0.001067 -0.000052 -0.000000 -0.0068 -0.0003 0.0000
227 1 -1.8750 1.8750 -5.6250 -0.004980 -0.001840 -0.001803 -0.0203 -0.0060 -0.0057
228 1 -1.8750 1.8750 -1.8750 -0.014045 -0.005646 -0.001804 -0.0544 -0.0184 -0.0057
229 1 -1.8750 1.8750 1.8750 -0.017983 -0.007435 -0.000016 -0.0680 -0.0240 -0.0001
230 1 -1.8750 1.8750 5.6250 -0.017998 -0.007429 -0.000000 -0.0681 -0.0240 0.0000
231 1 -1.8750 1.8750 9.3750 -0.017983 -0.007435 0.000016 -0.0680 -0.0240 0.0001
232 1 -1.8750 1.8750 13.1250 -0.014045 -0.005646 0.001804 -0.0544 -0.0184 0.0057
233 1 -1.8751 5.6250 -13.1250 -0.027098 -0.007437 0.003842 -0.1025 -0.0240 0.0126
234 1 -1.8750 5.6250 -9.3750 -0.018071 -0.007435 -0.000000 -0.0686 -0.0240 0.0000
235 1 -1.8751 5.6250 -5.6250 -0.027098 -0.007437 -0.003842 -0.1025 -0.0240 -0.0126
236 1 -1.8751 5.6250 -1.8750 -0.012794 -0.007448 -0.003850 0.0471 -0.0241 -0.0127
237 1 -1.8751 5.6250 1.8750 -0.021840 -0.007451 -0.000033 0.0131 -0.0241 -0.0002
238 1 -1.8751 5.6250 5.6250 -0.021870 -0.007451 -0.000000 0.0129 -0.0241 0.0000
239 1 -1.8751 5.6250 9.3750 -0.021840 -0.007451 0.000033 0.0131 -0.0241 0.0002
240 1 -1.8751 5.6250 13.1250 -0.012794 -0.007448 0.003850 0.0471 -0.0241 0.0127
241 1 -1.8751 9.3750 -13.1250 -0.025761 -0.005603 0.001806 -0.0004 -0.0181 0.0058
242 1 -1.8751 9.3750 -9.3750 -0.021849 -0.007395 0.000000 0.0130 -0.0238 0.0000
243 1 -1.8751 9.3750 -5.6250 -0.025761 -0.005603 -0.001806 -0.0004 -0.0181 -0.0058
244 1 -1.8751 9.3750 -1.8750 -0.034808 -0.001786 -0.001808 -0.0344 -0.0056 -0.0058
245 1 -1.8752 9.3750 1.8750 -0.038745 0.000006 -0.000016 -0.0480 0.0000 -0.0001
246 1 -1.8752 9.3750 5.6250 -0.038761 0.000001 0.000000 -0.0481 0.0000 0.0000
247 1 -1.8752 9.3750 9.3750 -0.038745 0.000006 0.000016 -0.0480 0.0000 0.0001
248 1 -1.8751 9.3750 13.1250 -0.034808 -0.001786 0.001808 -0.0344 -0.0056 0.0058
249 1 -1.8751 13.1250 -13.1250 -0.021827 0.007401 -0.000008 0.0132 0.0238 -0.0001
250 1 -1.8751 13.1250 -9.3750 -0.021810 0.007381 -0.000000 0.0133 0.0237 0.0000
251 1 -1.8751 13.1250 -5.6250 -0.021827 0.007401 0.000008 0.0132 0.0238 0.0001
252 1 -1.8751 13.1250 -1.8750 -0.021854 0.007437 0.000009 0.0130 0.0240 0.0001
253 1 -1.8751 13.1250 1.8750 -0.021868 0.007454 0.000003 0.0129 0.0241 0.0000
254 1 -1.8751 13.1250 5.6250 -0.021866 0.007452 -0.000000 0.0129 0.0241 0.0000
255 1 -1.8751 13.1250 9.3750 -0.021868 0.007454 -0.000003 0.0129 0.0241 -0.0000
256 1 -1.8751 13.1250 13.1250 -0.021854 0.007437 -0.000009 0.0130 0.0240 -0.0001
257 1 1.8744 -13.1245 -13.1250 -0.213420 0.184176 -0.000003 -0.5973 0.5866 -0.0000
258 1 1.8744 -13.1245 -9.3750 -0.213421 0.184124 -0.000000 -0.5973 0.5862 -0.0000
259 1 1.8744 -13.1245 -5.6250 -0.213420 0.184176 0.000003 -0.5973 0.5866 0.0000
260 1 1.8744 -13.1245 -1.8750 -0.213418 0.184281 0.000003 -0.5973 0.5873 0.0000
261 1 1.8744 -13.1245 1.8750 -0.213417 0.184332 0.000001 -0.5973 0.5876 0.0000
262 1 1.8744 -13.1245 5.6250 -0.213417 0.184331 0.000000 -0.5973 0.5876 0.0000
263 1 1.8744 -13.1245 9.3750 -0.213417 0.184332 -0.000001 -0.5973 0.5876 -0.0000
264 1 1.8744 -13.1245 13.1250 -0.213418 0.184281 -0.000003 -0.5973 0.5873 -0.0000
265 1 1.8748 -9.3750 -13.1250 -0.046217 0.017181 -0.000000 -0.0723 0.0629 -0.0000
266 1 1.8748 -9.3750 -9.3750 -0.046217 0.017181 -0.000000 -0.0723 0.0629 0.0000
267 1 1.8748 -9.3750 -5.6250 -0.046217 0.017181 0.000000 -0.0723 0.0629 0.0000
268 1 1.8748 -9.3750 -1.8750 -0.046217 0.017182 0.000000 -0.0723 0.0629 0.0000
269 1 1.8748 -9.3750 1.8750 -0.046217 0.017182 0.000000 -0.0723 0.0629 0.0000
270 1 1.8748 -9.3750 5.6250 -0.046217 0.017182 -0.000000 -0.0723 0.0629 0.0000
271 1 1.8748 -9.3750 9.3750 -0.046217 0.017182 -0.000000 -0.0723 0.0629 -0.0000
272 1 1.8748 -9.3750 13.1250 -0.046217 0.017182 -0.000000 -0.0723 0.0629 -0.0000
273 1 1.8748 -5.6250 -13.1250 -0.038852 0.000172 -0.000000 -0.0487 0.0011 -0.0000
274 1 1.8748 -5.6250 -9.3750 -0.038851 0.000228 -0.000000 -0.0487 0.0015 -0.0000
275 1 1.8748 -5.6250 -5.6250 -0.038852 0.000172 0.000000 -0.0487 0.0011 0.0000
276 1 1.8748 -5.6250 -1.8750 -0.038856 0.000053 0.000000 -0.0488 0.0003 0.0000
277 1 1.8748 -5.6250 1.8750 -0.038857 -0.000002 0.000001 -0.0488 -0.0000 0.0000
278 1 1.8748 -5.6250 5.6250 -0.038856 -0.000000 0.000000 -0.0488 -0.0000 0.0000
279 1 1.8748 -5.6250 9.3750 -0.038857 -0.000002 -0.000001 -0.0488 -0.0000 -0.0000
280 1 1.8748 -5.6250 13.1250 -0.038856 0.000053 -0.000000 -0.0488 0.0003 -0.0000
281 1 1.8748 -1.8750 -13.1250 -0.040631 -0.004170 0.001802 -0.0543 -0.0151 0.0057
282 1 1.8748 -1.8750 -9.3750 -0.038843 -0.000258 0.000000 -0.0487 -0.0017 0.0000
283 1 1.8748 -1.8750 -5.6250 -0.040631 -0.004170 -0.001802 -0.0543 -0.0151 -0.0057
284 1 1.8748 -1.8750 -1.8750 -0.044435 -0.013231 -0.001804 -0.0667 -0.0492 -0.0057
285 1 1.8748 -1.8750 1.8750 -0.046223 -0.017169 -0.000016 -0.0723 -0.0628 -0.0001
286 1 1.8748 -1.8750 5.6250 -0.046218 -0.017184 -0.000000 -0.0723 -0.0629 0.0000
287 1 1.8748 -1.8750 9.3750 -0.046223 -0.017169 0.000016 -0.0723 -0.0628 0.0001
288 1 1.8748 -1.8750 13.1250 -0.044435 -0.013231 0.001804 -0.0667 -0.0492 0.0057
289 1 1.8748 1.8749 -13.1249 -0.074249 -0.045213 0.030180 -0.1589 -0.1495 0.0946
290 1 1.8748 1.8750 -9.3750 -0.049786 -0.020750 -0.000000 -0.0835 -0.0741 -0.0000
291 1 1.8748 1.8749 -5.6251 -0.074249 -0.045213 -0.030180 -0.1589 -0.1495 -0.0946
292 1 1.8745 1.8746 -1.8751 -0.185345 -0.156259 -0.030343 -0.5104 -0.5007 -0.0956
293 1 1.8744 1.8745 1.8750 -0.211680 -0.182594 -0.003958 -0.5920 -0.5823 -0.0137
294 1 1.8744 1.8745 5.6250 -0.213422 -0.184335 -0.000000 -0.5973 -0.5876 -0.0000
295 1 1.8744 1.8745 9.3750 -0.211680 -0.182594 0.003958 -0.5920 -0.5823 0.0137
296 1 1.8745 1.8746 13.1251 -0.185345 -0.156259 0.030343 -0.5104 -0.5007 0.0956
297 1 1.8741 5.6245 -13.1247 -0.328270 -0.184209 0.120067 -0.9609 -0.5868 0.3851
298 1 1.8744 5.6245 -9.3750 -0.221033 -0.184134 -0.000000 -0.6222 -0.5863 -0.0000
299 1 1.8741 5.6245 -5.6253 -0.328270 -0.184209 -0.120067 -0.9609 -0.5868 -0.3851
300 1 1.8797 5.6245 -1.8753 1.847759 -0.183235 -0.118984 5.8553 -0.5805 -0.3781
301 1 1.8794 5.6245 1.8750 1.734394 -0.183318 -0.009033 5.4893 -0.5811 -0.0339
302 1 1.8794 5.6245 5.6250 1.730770 -0.183321 -0.000000 5.4780 -0.5811 0.0000
303 1 1.8794 5.6245 9.3750 1.734394 -0.183318 0.009033 5.4893 -0.5811 0.0339
304 1 1.8797 5.6245 13.1253 1.847759 -0.183235 0.118984 5.8553 -0.5805 0.3781
305 1 1.8793 9.3746 -13.1249 1.709370 -0.138239 0.030387 5.4103 -0.4324 0.0959
306 1 1.8794 9.3746 -9.3750 1.734293 -0.162941 -0.000000 5.4886 -0.5094 -0.0000
307 1 1.8793 9.3746 -5.6251 1.709370 -0.138239 -0.030387 5.4103 -0.4324 -0.0959
308 1 1.8790 9.3749 -1.8751 1.596069 -0.028318 -0.030553 5.0446 -0.0885 -0.0970
309 1 1.8790 9.3750 1.8750 1.569233 -0.001740 -0.003980 4.9598 -0.0053 -0.0139
310 1 1.8790 9.3750 5.6250 1.567450 0.000005 -0.000000 4.9542 0.0000 -0.0000
311 1 1.8790 9.3750 9.3750 1.569233 -0.001740 0.003980 4.9598 -0.0053 0.0139
312 1 1.8790 9.3749 13.1251 1.596069 -0.028318 0.030553 5.0446 -0.0885 0.0970
313 1 1.8794 13.1254 -13.1250 1.736173 0.170456 0.001756 5.4948 0.5342 0.0054
314 1 1.8794 13.1254 -9.3750 1.737950 0.166556 0.000000 5.5004 0.5209 0.0000
315 1 1.8794 13.1254 -5.6250 1.736173 0.170456 -0.001756 5.4948 0.5342 -0.0054
316 1 1.8794 13.1255 -1.8750 1.732555 0.179376 -0.001759 5.4836 0.5674 -0.0055
317 1 1.8794 13.1255 1.8750 1.730774 0.183305 -0.000017 5.4780 0.5810 -0.0001
318 1 1.8794 13.1255 5.6250 1.730775 0.183323 -0.000000 5.4781 0.5811 0.0000
319 1 1.8794 13.1255 9.3750 1.730774 0.183305 0.000017 5.4780 0.5810 0.0001
320 1 1.8794 13.1255 13.1250 1.732555 0.179376 0.001759 5.4836 0.5674 0.0055
321 1 5.6289 -13.1299 -13.1250 1.550371 -1.935688 -0.000000 4.8920 -6.1266 -0.0000
322 1 5.6289 -13.1299 -9.3750 1.550372 -1.935688 0.000000 4.8920 -6.1266 0.0000
323 1 5.6289 -13.1299 -5.6250 1.550371 -1.935688 0.000000 4.8920 -6.1266 0.0000
324 1 5.6289 -13.1299 -1.8750 1.550370 -1.935688 0.000000 4.8920 -6.1266 0.0000
325 1 5.6289 -13.1299 1.8750 1.550370 -1.935688 0.000000 4.8920 -6.1266 0.0000
326 1 5.6289 -13.1299 5.6250 1.550369 -1.935688 0.000000 4.8920 -6.1266 0.0000
327 1 5.6289 -13.1299 9.3750 1.550370 -1.935688 -0.000000 4.8920 -6.1266 -0.0000
328 1 5.6289 -13.1299 13.1250 1.550370 -1.935688 -0.000000 4.8920 -6.1266 -0.0000
329 1 5.6289 -9.3749 -13.1250 1.552984 0.004420 -0.000000 4.9088 -0.0775 -0.0000
330 1 5.6289 -9.3749 -9.3750 1.552984 0.004420 0.000000 4.9088 -0.0775 0.0000
331 1 5.6289 -9.3749 -5.6250 1.552984 0.004420 0.000000 4.9088 -0.0775 0.0000
332 1 5.6289 -9.3749 -1.8750 1.552984 0.004420 0.000000 4.9088 -0.0775 0.0000
333 1 5.6289 -9.3749 1.8750 1.552984 0.004420 0.000000 4.9088 -0.0775 0.0000
334 1 5.6289 -9.3749 5.6250 1.552984 0.004421 0.000000 4.9088 -0.0775 0.0000
335 1 5.6289 -9.3749 9.3750 1.552984 0.004420 -0.000000 4.9088 -0.0775 -0.0000
336 1 5.6289 -9.3749 13.1250 1.552984 0.004420 -0.000000 4.9088 -0.0775 -0.0000
337 1 5.6289 -5.6250 -13.1250 1.553098 0.000420 0.000002 4.9095 0.0027 0.0000
338 1 5.6289 -5.6250 -9.3750 1.553099 0.000541 0.000000 4.9095 0.0035 0.0000
339 1 5.6289 -5.6250 -5.6250 1.553098 0.000420 -0.000002 4.9095 0.0027 -0.0000
340 1 5.6289 -5.6250 -1.8750 1.553097 0.000116 -0.000002 4.9095 0.0007 -0.0000
341 1 5.6289 -5.6250 1.8750 1.553097 -0.000002 0.000002 4.9095 -0.0000 0.0000
342 1 5.6289 -5.6250 5.6250 1.553096 -0.000000 -0.000000 4.9095 -0.0000 0.0000
343 1 5.6289 -5.6250 9.3750 1.553097 -0.000002 -0.000002 4.9095 -0.0000 -0.0000
344 1 5.6289 -5.6250 13.1250 1.553097 0.000116 0.000002 4.9095 0.0007 0.0000
345 1 5.6289 -1.8750 -13.1250 1.553070 -0.009622 0.003838 4.9093 -0.0377 0.0126
346 1 5.6289 -1.8750 -9.3750 1.553096 -0.000607 0.000000 4.9095 -0.0039 0.0000
347 1 5.6289 -1.8750 -5.6250 1.553070 -0.009622 -0.003838 4.9093 -0.0377 -0.0126
348 1 5.6289 -1.8751 -1.8750 1.553013 0.004639 -0.003846 4.9089 0.1116 -0.0127
349 1 5.6289 -1.8751 1.8750 1.552985 -0.004395 -0.000033 4.9088 0.0776 -0.0002
350 1 5.6289 -1.8751 5.6250 1.552984 -0.004424 -0.000000 4.9088 0.0775 0.0000
351 1 5.6289 -1.8751 9.3750 1.552985 -0.004395 0.000033 4.9088 0.0776 0.0002
352 1 5.6289 -1.8751 13.1250 1.553013 0.004639 0.003846 4.9089 0.1116 0.0127
353 1 5.6289 1.8746 -13.1247 1.552559 -0.119189 0.119941 4.9060 -0.2856 0.3842
354 1 5.6289 1.8749 -9.3750 1.552927 -0.012027 -0.000000 4.9084 0.0527 -0.0000
355 1 5.6289 1.8746 -5.6253 1.552559 -0.119189 -0.119941 4.9060 -0.2856 -0.3842
356 1 5.6289 1.8802 -1.8753 1.550792 2.052589 -0.118862 4.8947 6.5034 -0.3773
357 1 5.6289 1.8799 1.8750 1.550398 1.939305 -0.009027 4.8922 6.1378 -0.0339
358 1 5.6289 1.8799 5.6250 1.550371 1.935683 0.000000 4.8920 6.1266 0.0000
359 1 5.6289 1.8799 9.3750 1.550398 1.939305 0.009027 4.8922 6.1378 0.0339
360 1 5.6289 1.8802 13.1253 1.550792 2.052589 0.118862 4.8947 6.5034 0.3773
361 1 5.6289 5.6299 -13.1305 1.548546 1.933840 -2.182480 4.8803 6.1148 -6.9154
362 1 5.6289 5.6299 -9.3750 1.550256 1.935568 0.000000 4.8913 6.1259 0.0000
363 1 5.6289 5.6299 -5.6195 1.548546 1.933840 2.182480 4.8803 6.1148 6.9154
ITEM: TIMESTEP
10
ITEM: NUMBER OF ATOMS
363
ITEM: BOX BOUNDS pp pp pp
-15.000000 15.000000
-15.000000 15.000000
-15.000000 15.000000
ITEM: ATOMS id type xu yu zu vx vy vz fx fy fz
1 1 -13.4485 -13.1250 -13.1250 -8.535752 0.000439 0.000000 -0.2218 0.0010 0.0000
2 1 -13.4485 -13.1250 -9.3750 -8.535751 0.000440 -0.000000 -0.2218 0.0010 -0.0000
3 1 -13.4485 -13.1250 -5.6250 -8.535752 0.000439 -0.000000 -0.2218 0.0010 -0.0000
4 1 -13.4485 -13.1250 -1.8750 -8.535750 0.000433 -0.000000 -0.2218 0.0010 -0.0000
5 1 -13.4485 -13.1250 1.8750 -8.535752 0.000432 -0.000001 -0.2218 0.0010 -0.0000
6 1 -13.4485 -13.1250 5.6250 -8.535752 0.000431 -0.000000 -0.2218 0.0010 0.0000
7 1 -13.4485 -13.1250 9.3750 -8.535752 0.000432 0.000001 -0.2218 0.0010 0.0000
8 1 -13.4485 -13.1250 13.1250 -8.535750 0.000433 0.000000 -0.2218 0.0010 0.0000