ITEM: TIMESTEP
0
ITEM: NUMBER OF ATOMS
363
ITEM: BOX BOUNDS pp pp pp
-15.000000 15.000000
-15.000000 15.000000
-15.000000 15.000000
ITEM: ATOMS id type xu yu zu vx vy vz fx fy fz
1 1 -13.1250 -13.1250 -13.1250 -0.000023 -0.000008 -0.000027 -5.0556 -0.0005 0.0021
2 1 -13.1251 -13.1249 -9.3750 -0.000118 0.000110 0.000035 -5.0519 -0.0030 -0.0033
3 1 -13.1250 -13.1250 -5.6251 0.000077 0.000040 -0.000104 -5.0575 -0.0029 0.0075
4 1 -13.1250 -13.1250 -1.8749 -0.000005 0.000031 0.000191 -5.0550 0.0006 -0.0088
5 1 -13.1250 -13.1249 1.8750 -0.000021 0.000151 -0.000033 -5.0548 -0.0097 0.0057
6 1 -13.1250 -13.1250 5.6250 -0.000087 0.000061 0.000047 -5.0561 -0.0022 -0.0047
7 1 -13.1251 -13.1250 9.3749 -0.000162 0.000012 -0.000147 -5.0505 0.0012 0.0064
8 1 -13.1250 -13.1250 13.1250 -0.000065 -0.000019 0.000042 -5.0522 0.0048 -0.0044
9 1 -13.1250 -9.3750 -13.1250 0.000071 -0.000004 0.000062 -5.0572 0.0000 -0.0043
10 1 -13.1250 -9.3750 -9.3750 -0.000031 0.000043 -0.000065 -5.0522 0.0041 0.0057
11 1 -13.1250 -9.3750 -5.6249 0.000010 -0.000065 0.000133 -5.0554 0.0045 -0.0053
12 1 -13.1249 -9.3750 -1.8750 0.000147 -0.000073 0.000022 -5.0564 0.0048 0.0005
13 1 -13.1250 -9.3751 1.8750 0.000078 -0.000106 -0.000056 -5.0546 0.0078 -0.0003
14 1 -13.1250 -9.3750 5.6249 -0.000075 0.000012 -0.000145 -5.0538 0.0005 0.0036
15 1 -13.1251 -9.3750 9.3750 -0.000120 -0.000057 -0.000017 -5.0538 0.0035 -0.0029
16 1 -13.1250 -9.3750 13.1250 0.000027 0.000070 -0.000045 -5.0546 -0.0035 0.0024
17 1 -13.1250 -5.6250 -13.1249 -0.000063 0.000007 0.000117 -5.0557 -0.0010 -0.0038
18 1 -13.1250 -5.6249 -9.3750 -0.000101 0.000184 -0.000017 -5.0545 -0.0059 0.0040
19 1 -13.1250 -5.6250 -5.6250 -0.000082 0.000085 0.000078 -5.0546 -0.0027 -0.0039
20 1 -13.1250 -5.6250 -1.8750 -0.000019 0.000089 -0.000026 -5.0550 -0.0041 -0.0002
21 1 -13.1250 -5.6250 1.8749 -0.000036 0.000077 -0.000130 -5.0547 -0.0063 0.0037
22 1 -13.1249 -5.6250 5.6250 0.000093 -0.000028 -0.000015 -5.0584 -0.0013 -0.0023
23 1 -13.1250 -5.6250 9.3750 0.000024 0.000077 -0.000028 -5.0538 -0.0027 0.0013
24 1 -13.1250 -5.6250 13.1250 0.000051 -0.000047 0.000036 -5.0563 0.0050 0.0006
25 1 -13.1250 -1.8750 -13.1250 0.000088 -0.000035 0.000093 -5.0576 0.0012 -0.0020
26 1 -13.1250 -1.8750 -9.3750 -0.000073 -0.000021 0.000051 -5.0541 0.0017 0.0032
27 1 -13.1250 -1.8750 -5.6249 0.000067 0.000091 0.000154 -5.0541 -0.0044 -0.0032
28 1 -13.1250 -1.8750 -1.8750 0.000021 0.000026 0.000059 -5.0569 -0.0017 0.0012
29 1 -13.1250 -1.8750 1.8750 -0.000028 -0.000092 0.000027 -5.0534 0.0030 -0.0003
30 1 -13.1250 -1.8751 5.6250 0.000036 -0.000131 -0.000032 -5.0597 0.0030 0.0022
31 1 -13.1250 -1.8750 9.3750 -0.000031 0.000042 0.000037 -5.0552 -0.0001 -0.0015
32 1 -13.1250 -1.8749 13.1250 -0.000077 0.000110 0.000024 -5.0532 -0.0058 0.0014
33 1 -13.1249 1.8750 -13.1249 0.000180 -0.000001 0.000113 -5.0556 0.0002 -0.0082
34 1 -13.1249 1.8749 -9.3751 0.000099 -0.000129 -0.000202 -5.0572 0.0034 0.0101
35 1 -13.1250 1.8749 -5.6250 -0.000034 -0.000161 0.000070 -5.0544 0.0084 -0.0035
36 1 -13.1250 1.8749 -1.8749 -0.000027 -0.000118 0.000137 -5.0528 0.0039 -0.0026
37 1 -13.1250 1.8750 1.8750 0.000054 -0.000091 0.000047 -5.0566 0.0028 0.0018
38 1 -13.1249 1.8750 5.6250 0.000187 -0.000050 0.000047 -5.0608 -0.0010 0.0011
39 1 -13.1249 1.8750 9.3750 0.000139 -0.000013 0.000094 -5.0581 0.0012 -0.0030
40 1 -13.1251 1.8750 13.1250 -0.000151 -0.000071 -0.000044 -5.0551 0.0056 0.0051
41 1 -13.1250 5.6250 -13.1251 0.000089 0.000037 -0.000147 -5.0540 0.0002 0.0066
42 1 -13.1250 5.6250 -9.3750 -0.000080 -0.000029 -0.000043 -5.0516 -0.0010 -0.0048
43 1 -13.1250 5.6250 -5.6251 0.000006 0.000061 -0.000208 -5.0554 -0.0051 0.0073
44 1 -13.1250 5.6250 -1.8750 -0.000011 -0.000039 0.000064 -5.0564 -0.0027 -0.0061
45 1 -13.1251 5.6250 1.8750 -0.000113 0.000071 0.000016 -5.0573 -0.0022 -0.0005
46 1 -13.1251 5.6250 5.6250 -0.000168 -0.000025 -0.000044 -5.0518 0.0003 -0.0018
47 1 -13.1250 5.6250 9.3749 -0.000071 -0.000005 -0.000188 -5.0582 -0.0007 0.0077
48 1 -13.1250 5.6250 13.1251 0.000004 0.000062 0.000137 -5.0550 -0.0012 -0.0109
49 1 -13.1250 9.3750 -13.1250 -0.000003 0.000090 0.000022 -5.0542 -0.0030 -0.0001
50 1 -13.1250 9.3750 -9.3750 -0.000042 0.000037 0.000021 -5.0562 -0.0018 -0.0021
51 1 -13.1250 9.3750 -5.6250 0.000056 -0.000009 -0.000098 -5.0556 0.0014 0.0071
52 1 -13.1250 9.3750 -1.8749 0.000078 -0.000094 0.000177 -5.0589 0.0055 -0.0062
53 1 -13.1250 9.3750 1.8750 -0.000031 0.000093 0.000071 -5.0567 -0.0043 0.0015
54 1 -13.1249 9.3750 5.6250 0.000099 0.000024 0.000035 -5.0562 -0.0019 0.0002
55 1 -13.1251 9.3750 9.3750 -0.000147 -0.000026 0.000008 -5.0497 0.0032 0.0008
56 1 -13.1251 9.3751 13.1250 -0.000124 0.000124 0.000015 -5.0540 -0.0002 0.0001
57 1 -13.1250 13.1250 -13.1249 0.000080 -0.000027 0.000205 -5.0563 0.0023 -0.0099
58 1 -13.1250 13.1250 -9.3750 0.000059 0.000000 -0.000080 -5.0585 0.0027 0.0054
59 1 -13.1250 13.1250 -5.6250 0.000007 -0.000003 -0.000053 -5.0555 0.0005 -0.0018
60 1 -13.1250 13.1251 -1.8751 -0.000069 0.000169 -0.000123 -5.0537 -0.0067 0.0030
61 1 -13.1250 13.1249 1.8750 0.000055 -0.000135 0.000011 -5.0580 0.0087 -0.0022
62 1 -13.1250 13.1250 5.6250 0.000061 -0.000023 0.000028 -5.0526 0.0024 0.0010
63 1 -13.1250 13.1251 9.3750 0.000042 0.000138 0.000098 -5.0539 -0.0050 -0.0042
64 1 -13.1250 13.1251 13.1250 -0.000027 0.000152 -0.000085 -5.0577 -0.0033 0.0083
65 1 -9.3750 -13.1250 -13.1250 -0.000032 0.000062 -0.000022 0.2019 -0.0025 -0.0034
66 1 -9.3750 -13.1250 -9.3751 0.000099 0.000030 -0.000131 0.1970 -0.0024 0.0059
67 1 -9.3750 -13.1250 -5.6249 -0.000059 0.000083 0.000109 0.2029 -0.0035 -0.0060
68 1 -9.3750 -13.1250 -1.8750 0.000019 -0.000006 -0.000019 0.2000 -0.0010 0.0003
69 1 -9.3750 -13.1250 1.8749 0.000011 0.000067 -0.000122 0.2002 0.0021 0.0022
70 1 -9.3751 -13.1251 5.6250 -0.000119 -0.000177 -0.000075 0.2022 0.0029 0.0018
71 1 -9.3749 -13.1251 9.3750 0.000123 -0.000142 0.000082 0.1961 0.0039 -0.0059
72 1 -9.3749 -13.1250 13.1250 0.000111 -0.000066 -0.000096 0.1981 0.0020 0.0041
73 1 -9.3750 -9.3750 -13.1250 -0.000048 -0.000023 0.000098 0.2033 0.0010 -0.0051
74 1 -9.3749 -9.3750 -9.3750 0.000136 -0.000036 -0.000016 0.1934 0.0033 0.0032
75 1 -9.3750 -9.3750 -5.6250 0.000010 0.000010 0.000059 0.2000 0.0029 -0.0024
76 1 -9.3750 -9.3750 -1.8750 0.000058 -0.000007 -0.000001 0.2009 0.0019 0.0024
77 1 -9.3750 -9.3750 1.8750 0.000098 0.000034 0.000059 0.1979 -0.0007 -0.0031
78 1 -9.3750 -9.3751 5.6250 0.000022 -0.000152 -0.000082 0.1972 -0.0006 0.0054
79 1 -9.3750 -9.3750 9.3750 -0.000018 -0.000014 0.000085 0.1978 -0.0044 -0.0058
80 1 -9.3750 -9.3750 13.1250 0.000056 0.000000 -0.000079 0.1988 -0.0035 0.0062
81 1 -9.3750 -5.6250 -13.1250 -0.000064 -0.000046 0.000087 0.2013 0.0004 -0.0044
82 1 -9.3750 -5.6250 -9.3750 -0.000046 0.000093 0.000100 0.2024 -0.0058 0.0008
83 1 -9.3750 -5.6250 -5.6249 -0.000029 0.000085 0.000129 0.2039 -0.0056 -0.0028
84 1 -9.3750 -5.6250 -1.8750 0.000006 0.000091 -0.000015 0.1999 0.0006 0.0026
85 1 -9.3750 -5.6250 1.8750 0.000014 -0.000055 -0.000024 0.2004 0.0019 0.0003
86 1 -9.3750 -5.6251 5.6250 -0.000093 -0.000123 -0.000015 0.2064 0.0020 0.0003
87 1 -9.3750 -5.6251 9.3750 0.000097 -0.000142 0.000009 0.1970 0.0042 -0.0036
88 1 -9.3750 -5.6251 13.1249 -0.000017 -0.000123 -0.000164 0.2046 0.0045 0.0069
89 1 -9.3750 -1.8750 -13.1250 -0.000054 -0.000040 0.000072 0.2041 0.0023 -0.0010
90 1 -9.3750 -1.8751 -9.3751 0.000018 -0.000104 -0.000108 0.1987 0.0069 0.0040
91 1 -9.3749 -1.8751 -5.6250 0.000109 -0.000149 -0.000034 0.2002 0.0068 -0.0008
92 1 -9.3750 -1.8749 -1.8750 -0.000066 0.000202 0.000021 0.2048 -0.0058 -0.0022
93 1 -9.3750 -1.8750 1.8750 0.000086 -0.000025 -0.000034 0.1989 0.0010 0.0026
94 1 -9.3751 -1.8750 5.6250 -0.000195 0.000030 0.000062 0.2078 -0.0054 -0.0032
95 1 -9.3750 -1.8750 9.3750 -0.000011 -0.000014 -0.000025 0.2008 -0.0012 0.0050
96 1 -9.3750 -1.8750 13.1251 0.000051 0.000014 0.000173 0.1974 -0.0027 -0.0045
97 1 -9.3749 1.8750 -13.1251 0.000132 0.000083 -0.000149 0.1983 -0.0002 0.0068
98 1 -9.3750 1.8750 -9.3750 -0.000019 0.000083 0.000065 0.2003 -0.0017 -0.0038
99 1 -9.3750 1.8750 -5.6250 0.000034 0.000037 0.000036 0.1986 -0.0032 0.0000
100 1 -9.3749 1.8750 -1.8750 0.000114 -0.000058 0.000013 0.1985 0.0051 0.0000
101 1 -9.3750 1.8750 1.8750 -0.000024 0.000070 -0.000009 0.2035 -0.0026 0.0020
102 1 -9.3751 1.8749 5.6250 -0.000151 -0.000126 0.000094 0.2093 0.0040 -0.0029
103 1 -9.3750 1.8750 9.3750 -0.000049 0.000056 0.000027 0.2074 -0.0019 0.0013
104 1 -9.3750 1.8750 13.1250 -0.000096 -0.000008 0.000037 0.1997 0.0010 -0.0035
105 1 -9.3749 5.6251 -13.1251 0.000144 0.000178 -0.000134 0.1995 -0.0050 0.0049
106 1 -9.3749 5.6251 -9.3750 0.000151 0.000159 -0.000078 0.1941 -0.0033 0.0017
107 1 -9.3750 5.6250 -5.6249 -0.000004 0.000035 0.000107 0.2028 0.0009 -0.0022
108 1 -9.3750 5.6250 -1.8749 -0.000073 -0.000019 0.000142 0.2033 -0.0010 0.0012
109 1 -9.3751 5.6250 1.8751 -0.000203 -0.000005 0.000195 0.2047 -0.0002 -0.0039
110 1 -9.3750 5.6250 5.6250 0.000066 -0.000029 -0.000012 0.1971 -0.0003 0.0077
111 1 -9.3751 5.6250 9.3751 -0.000217 0.000005 0.000200 0.2083 0.0001 -0.0047
112 1 -9.3750 5.6250 13.1250 0.000000 0.000029 0.000097 0.2005 -0.0029 -0.0019
113 1 -9.3750 9.3750 -13.1250 0.000057 -0.000023 -0.000050 0.2013 0.0038 0.0045
114 1 -9.3750 9.3750 -9.3749 -0.000078 0.000016 0.000212 0.2008 0.0019 -0.0071
115 1 -9.3750 9.3750 -5.6250 0.000028 0.000077 0.000034 0.2015 -0.0027 0.0007
116 1 -9.3751 9.3750 -1.8751 -0.000133 -0.000034 -0.000122 0.2051 -0.0003 0.0051
117 1 -9.3750 9.3750 1.8750 -0.000090 -0.000077 0.000059 0.2042 0.0058 -0.0043
118 1 -9.3750 9.3750 5.6250 0.000017 0.000055 0.000008 0.1997 -0.0022 0.0008
119 1 -9.3749 9.3750 9.3750 0.000189 -0.000044 0.000009 0.1907 0.0008 -0.0019
120 1 -9.3750 9.3750 13.1250 -0.000038 -0.000082 -0.000072 0.1982 0.0030 0.0014
121 1 -9.3750 13.1250 -13.1250 0.000008 -0.000005 -0.000041 0.2018 0.0011 0.0049
122 1 -9.3751 13.1250 -9.3750 -0.000132 -0.000023 0.000080 0.2049 0.0015 -0.0048
123 1 -9.3750 13.1250 -5.6250 0.000001 -0.000050 -0.000083 0.2010 0.0047 0.0051
124 1 -9.3750 13.1250 -1.8750 0.000040 -0.000055 0.000056 0.2013 0.0009 -0.0033
125 1 -9.3751 13.1251 1.8750 -0.000104 0.000188 -0.000023 0.2060 -0.0060 0.0025
126 1 -9.3749 13.1250 5.6250 0.000199 -0.000001 0.000027 0.1965 -0.0025 0.0005
127 1 -9.3750 13.1250 9.3750 0.000096 -0.000041 0.000091 0.1973 -0.0023 -0.0004
128 1 -9.3751 13.1250 13.1251 -0.000153 -0.000006 0.000120 0.2059 -0.0026 -0.0028
129 1 -5.6250 -13.1250 -13.1251 0.000040 0.000037 -0.000110 0.0000 -0.0014 0.0023
130 1 -5.6250 -13.1250 -9.3750 0.000088 0.000037 -0.000080 0.0001 0.0001 -0.0014
131 1 -5.6250 -13.1250 -5.6251 -0.000059 0.000006 -0.000108 -0.0013 -0.0050 0.0003
132 1 -5.6250 -13.1250 -1.8750 0.000005 0.000001 -0.000095 -0.0030 -0.0058 0.0010
133 1 -5.6250 -13.1250 1.8750 0.000008 0.000036 -0.000023 -0.0011 -0.0021 -0.0033
134 1 -5.6250 -13.1250 5.6249 -0.000020 -0.000012 -0.000149 -0.0008 0.0029 0.0063
135 1 -5.6249 -13.1250 9.3750 0.000132 -0.000067 0.000095 0.0022 0.0033 -0.0055
136 1 -5.6249 -13.1250 13.1250 0.000119 0.000060 0.000019 -0.0036 -0.0020 -0.0009
137 1 -5.6250 -9.3750 -13.1250 -0.000011 0.000085 0.000003 -0.0008 -0.0026 0.0043
138 1 -5.6251 -9.3750 -9.3749 -0.000128 0.000037 0.000213 0.0084 -0.0010 -0.0096
139 1 -5.6250 -9.3751 -5.6251 -0.000028 -0.000111 -0.000152 0.0002 0.0038 0.0071
140 1 -5.6250 -9.3751 -1.8751 -0.000029 -0.000141 -0.000102 0.0042 0.0032 -0.0017
141 1 -5.6250 -9.3750 1.8749 -0.000049 -0.000024 -0.000141 0.0007 0.0005 0.0039
142 1 -5.6250 -9.3750 5.6250 -0.000084 0.000040 0.000070 0.0039 -0.0016 -0.0044
143 1 -5.6250 -9.3750 9.3750 -0.000056 -0.000032 0.000018 0.0033 0.0008 0.0013
144 1 -5.6250 -9.3750 13.1250 -0.000030 0.000017 0.000034 0.0034 -0.0012 -0.0007
145 1 -5.6250 -5.6250 -13.1249 -0.000027 -0.000022 0.000107 -0.0026 -0.0003 -0.0017
146 1 -5.6249 -5.6250 -9.3750 0.000110 -0.000036 0.000091 -0.0056 0.0000 -0.0001
147 1 -5.6249 -5.6250 -5.6250 0.000209 -0.000001 0.000059 -0.0104 0.0003 -0.0038
148 1 -5.6250 -5.6250 -1.8751 -0.000011 -0.000077 -0.000188 0.0005 -0.0006 0.0090
149 1 -5.6250 -5.6250 1.8750 0.000052 -0.000056 0.000093 -0.0037 0.0012 -0.0062
150 1 -5.6250 -5.6250 5.6250 0.000046 -0.000016 0.000010 -0.0061 0.0013 -0.0004
151 1 -5.6250 -5.6250 9.3750 -0.000064 0.000043 -0.000087 0.0026 -0.0008 0.0033
152 1 -5.6249 -5.6250 13.1250 0.000134 -0.000090 0.000005 -0.0054 0.0009 0.0004
153 1 -5.6250 -1.8751 -13.1251 0.000010 -0.000146 -0.000119 -0.0031 0.0045 0.0008
154 1 -5.6250 -1.8750 -9.3750 0.000001 -0.000085 -0.000064 0.0006 0.0018 0.0002
155 1 -5.6249 -1.8749 -5.6250 0.000100 0.000119 0.000004 -0.0006 -0.0047 0.0010
156 1 -5.6249 -1.8750 -1.8749 0.000109 -0.000015 0.000126 -0.0047 0.0012 -0.0026
157 1 -5.6250 -1.8750 1.8750 0.000076 -0.000017 0.000055 0.0032 0.0007 0.0018
158 1 -5.6250 -1.8750 5.6250 -0.000002 0.000002 0.000070 -0.0034 -0.0006 -0.0015
159 1 -5.6250 -1.8750 9.3750 0.000013 0.000034 -0.000006 -0.0001 0.0004 -0.0004
160 1 -5.6250 -1.8751 13.1249 -0.000022 -0.000129 -0.000104 0.0030 0.0029 0.0009
161 1 -5.6250 1.8750 -13.1251 -0.000079 -0.000005 -0.000102 0.0066 -0.0027 -0.0012
162 1 -5.6251 1.8750 -9.3751 -0.000135 -0.000028 -0.000105 0.0029 -0.0033 0.0051
163 1 -5.6250 1.8750 -5.6249 -0.000011 -0.000055 0.000192 0.0031 0.0020 -0.0141
164 1 -5.6250 1.8751 -1.8752 0.000099 0.000122 -0.000318 -0.0028 -0.0054 0.0142
165 1 -5.6250 1.8750 1.8750 0.000052 0.000066 0.000020 -0.0032 0.0011 -0.0044
166 1 -5.6250 1.8750 5.6251 0.000007 -0.000002 0.000111 -0.0028 -0.0006 -0.0036
167 1 -5.6249 1.8750 9.3750 0.000113 0.000026 -0.000023 -0.0047 -0.0018 -0.0000
168 1 -5.6250 1.8750 13.1249 -0.000063 0.000014 -0.000150 -0.0003 -0.0016 0.0027
169 1 -5.6249 5.6250 -13.1250 0.000117 -0.000007 0.000050 -0.0013 0.0017 -0.0015
170 1 -5.6250 5.6249 -9.3750 -0.000010 -0.000141 0.000034 0.0033 0.0050 0.0021
171 1 -5.6249 5.6249 -5.6249 0.000104 -0.000111 0.000109 -0.0038 0.0030 -0.0066
172 1 -5.6250 5.6250 -1.8751 0.000009 -0.000074 -0.000200 -0.0027 0.0062 0.0065
173 1 -5.6250 5.6251 1.8749 -0.000033 0.000197 -0.000110 -0.0036 -0.0056 -0.0026
174 1 -5.6250 5.6250 5.6249 0.000063 -0.000038 -0.000117 -0.0005 0.0000 0.0021
175 1 -5.6249 5.6250 9.3750 0.000110 -0.000078 0.000033 -0.0087 0.0038 -0.0044
176 1 -5.6250 5.6250 13.1250 -0.000027 0.000072 -0.000044 -0.0018 -0.0023 0.0032
177 1 -5.6249 9.3750 -13.1251 0.000136 0.000092 -0.000128 -0.0063 -0.0046 0.0048
178 1 -5.6250 9.3750 -9.3750 -0.000081 0.000053 0.000011 0.0005 -0.0039 -0.0049
179 1 -5.6250 9.3750 -5.6251 0.000024 0.000022 -0.000101 0.0007 -0.0056 0.0050
180 1 -5.6250 9.3750 -1.8750 -0.000079 0.000088 0.000089 0.0000 -0.0073 -0.0039
181 1 -5.6250 9.3750 1.8750 0.000038 -0.000031 0.000028 -0.0011 0.0041 0.0020
182 1 -5.6251 9.3750 5.6250 -0.000102 -0.000056 0.000066 0.0039 0.0027 -0.0004
183 1 -5.6250 9.3750 9.3750 -0.000074 0.000048 0.000059 0.0075 -0.0013 -0.0001
184 1 -5.6250 9.3750 13.1250 -0.000079 -0.000030 0.000026 0.0005 0.0018 -0.0019
185 1 -5.6250 13.1250 -13.1250 -0.000023 -0.000080 0.000022 -0.0025 0.0049 -0.0014
186 1 -5.6250 13.1250 -9.3750 -0.000057 0.000030 -0.000081 -0.0009 0.0007 0.0037
187 1 -5.6250 13.1249 -5.6250 0.000005 -0.000143 0.000032 -0.0008 0.0054 -0.0058
188 1 -5.6249 13.1249 -1.8751 0.000158 -0.000175 -0.000201 -0.0052 0.0076 0.0057
189 1 -5.6250 13.1250 1.8750 0.000059 -0.000029 -0.000067 -0.0038 0.0011 -0.0026
190 1 -5.6250 13.1250 5.6250 0.000053 0.000098 -0.000060 -0.0033 -0.0047 0.0008
191 1 -5.6250 13.1250 9.3750 -0.000040 0.000082 0.000001 0.0012 -0.0031 -0.0008
192 1 -5.6250 13.1250 13.1250 0.000050 -0.000024 0.000028 -0.0059 0.0014 -0.0006
193 1 -1.8749 -13.1250 -13.1250 0.000114 0.000042 0.000097 -0.0517 0.0248 -0.0039
194 1 -1.8750 -13.1250 -9.3750 0.000046 0.000008 0.000016 -0.0488 0.0244 0.0002
195 1 -1.8751 -13.1250 -5.6250 -0.000108 0.000063 -0.000065 -0.0428 0.0220 0.0040
196 1 -1.8751 -13.1251 -1.8750 -0.000167 -0.000119 0.000079 -0.0413 0.0296 -0.0055
197 1 -1.8750 -13.1250 1.8749 -0.000058 -0.000037 -0.000101 -0.0448 0.0221 0.0029
198 1 -1.8750 -13.1250 5.6249 0.000049 0.000067 -0.000106 -0.0495 0.0287 0.0022
199 1 -1.8749 -13.1251 9.3750 0.000226 -0.000185 0.000027 -0.0506 0.0295 -0.0040
200 1 -1.8750 -13.1250 13.1250 -0.000085 -0.000001 -0.000060 -0.0428 0.0235 0.0042
201 1 -1.8750 -9.3750 -13.1249 -0.000023 0.000082 0.000135 0.0003 0.0008 -0.0048
202 1 -1.8749 -9.3751 -9.3750 0.000102 -0.000123 -0.000034 -0.0056 0.0068 0.0018
203 1 -1.8750 -9.3750 -5.6250 -0.000050 0.000058 -0.000098 -0.0007 -0.0031 0.0008
204 1 -1.8749 -9.3749 -1.8751 0.000111 0.000106 -0.000108 -0.0081 -0.0034 0.0012
205 1 -1.8751 -9.3750 1.8750 -0.000144 0.000000 -0.000029 0.0009 -0.0014 -0.0003
206 1 -1.8750 -9.3749 5.6250 0.000037 0.000156 0.000029 -0.0033 -0.0029 -0.0015
207 1 -1.8749 -9.3750 9.3750 0.000101 -0.000073 -0.000004 -0.0030 -0.0064 0.0012
208 1 -1.8750 -9.3750 13.1250 0.000087 0.000060 0.000020 -0.0062 -0.0010 0.0018
209 1 -1.8751 -5.6249 -13.1250 -0.000114 0.000146 0.000021 0.0019 -0.0046 -0.0016
210 1 -1.8750 -5.6249 -9.3751 -0.000060 0.000153 -0.000111 0.0032 -0.0099 0.0052
211 1 -1.8751 -5.6251 -5.6250 -0.000156 -0.000131 0.000062 0.0065 0.0052 -0.0067
212 1 -1.8750 -5.6249 -1.8751 0.000016 0.000116 -0.000156 0.0001 -0.0044 0.0082
213 1 -1.8751 -5.6250 1.8750 -0.000120 -0.000023 0.000093 0.0040 0.0006 -0.0047
214 1 -1.8751 -5.6250 5.6250 -0.000170 0.000041 0.000074 0.0074 0.0030 -0.0057
215 1 -1.8750 -5.6251 9.3749 -0.000062 -0.000274 -0.000262 0.0010 0.0063 0.0112
216 1 -1.8750 -5.6250 13.1250 -0.000048 0.000057 0.000067 0.0038 -0.0014 -0.0068
217 1 -1.8751 -1.8750 -13.1251 -0.000104 -0.000072 -0.000101 0.0041 0.0058 0.0044
218 1 -1.8750 -1.8751 -9.3751 0.000020 -0.000145 -0.000101 -0.0010 0.0080 -0.0005
219 1 -1.8750 -1.8750 -5.6251 0.000051 0.000005 -0.000113 0.0014 -0.0049 0.0011
220 1 -1.8750 -1.8751 -1.8750 0.000018 -0.000143 -0.000027 0.0019 0.0054 -0.0018
221 1 -1.8749 -1.8750 1.8750 0.000229 -0.000003 -0.000028 -0.0067 -0.0023 0.0010
222 1 -1.8750 -1.8750 5.6250 0.000015 0.000057 0.000037 -0.0013 -0.0004 -0.0018
223 1 -1.8750 -1.8750 9.3750 0.000029 -0.000058 0.000002 -0.0014 -0.0017 0.0036
224 1 -1.8750 -1.8750 13.1251 0.000073 -0.000042 0.000152 0.0003 0.0055 -0.0065
225 1 -1.8750 1.8750 -13.1250 0.000082 0.000030 0.000002 -0.0128 -0.0065 0.0036
226 1 -1.8750 1.8750 -9.3750 -0.000067 0.000022 -0.000063 0.0002 -0.0020 0.0025
227 1 -1.8749 1.8749 -5.6250 0.000122 -0.000136 0.000002 -0.0176 0.0004 -0.0077
228 1 -1.8750 1.8750 -1.8750 -0.000081 -0.000072 -0.000047 -0.0317 -0.0196 -0.0043
229 1 -1.8750 1.8749 1.8750 -0.000052 -0.000119 -0.000027 -0.0472 -0.0198 -0.0008
230 1 -1.8750 1.8750 5.6250 0.000021 0.000029 -0.000048 -0.0473 -0.0222 0.0011
231 1 -1.8750 1.8750 9.3750 -0.000008 0.000090 0.000014 -0.0452 -0.0274 -0.0025
232 1 -1.8750 1.8751 13.1250 -0.000030 0.000153 -0.000059 -0.0354 -0.0279 0.0081
233 1 -1.8750 5.6250 -13.1250 -0.000005 0.000084 0.000081 -0.0667 -0.0247 0.0053
234 1 -1.8750 5.6250 -9.3750 0.000006 0.000068 -0.000083 -0.0485 -0.0262 0.0012
235 1 -1.8750 5.6250 -5.6251 -0.000018 0.000087 -0.000158 -0.0685 -0.0285 -0.0096
236 1 -1.8750 5.6250 -1.8750 -0.000054 -0.000074 -0.000053 -0.1267 -0.0239 -0.0133
237 1 -1.8750 5.6250 1.8750 -0.000039 0.000011 -0.000005 -0.1518 -0.0261 0.0007
238 1 -1.8750 5.6250 5.6250 0.000014 0.000077 0.000072 -0.1504 -0.0230 0.0005
239 1 -1.8750 5.6250 9.3751 -0.000061 0.000021 0.000140 -0.1504 -0.0236 -0.0058
240 1 -1.8751 5.6249 13.1249 -0.000139 -0.000219 -0.000139 -0.1214 -0.0147 0.0207
241 1 -1.8751 9.3750 -13.1250 -0.000166 0.000052 -0.000064 -0.1575 -0.0167 0.0104
242 1 -1.8750 9.3750 -9.3749 -0.000029 -0.000038 0.000144 -0.1543 -0.0180 -0.0063
243 1 -1.8750 9.3750 -5.6250 0.000051 0.000022 -0.000036 -0.1672 -0.0179 0.0006
244 1 -1.8750 9.3750 -1.8749 0.000010 -0.000072 0.000121 -0.1921 -0.0050 -0.0081
245 1 -1.8750 9.3750 1.8751 0.000080 0.000022 0.000129 -0.2027 -0.0031 -0.0012
246 1 -1.8750 9.3751 5.6250 0.000017 0.000152 0.000044 -0.2002 0.0008 0.0000
247 1 -1.8750 9.3750 9.3750 0.000079 -0.000062 -0.000030 -0.2023 0.0036 0.0013
248 1 -1.8750 9.3750 13.1250 -0.000065 -0.000037 -0.000020 -0.1835 -0.0099 0.0049
249 1 -1.8751 13.1250 -13.1250 -0.000177 0.000063 -0.000030 -0.1493 0.0233 -0.0008
250 1 -1.8750 13.1251 -9.3750 -0.000017 0.000185 -0.000079 -0.1555 0.0172 -0.0000
251 1 -1.8750 13.1250 -5.6251 -0.000030 -0.000046 -0.000107 -0.1500 0.0267 0.0034
252 1 -1.8750 13.1250 -1.8750 -0.000050 0.000000 0.000068 -0.1485 0.0207 -0.0044
253 1 -1.8750 13.1249 1.8750 0.000011 -0.000139 -0.000010 -0.1517 0.0278 0.0018
254 1 -1.8751 13.1251 5.6250 -0.000291 0.000222 0.000016 -0.1413 0.0205 -0.0026
255 1 -1.8750 13.1250 9.3749 -0.000092 0.000079 -0.000106 -0.1513 0.0163 0.0034
256 1 -1.8750 13.1250 13.1250 -0.000080 -0.000071 -0.000016 -0.1501 0.0253 -0.0020
257 1 1.8750 -13.1250 -13.1250 -0.000092 0.000087 0.000045 -0.7659 0.5927 -0.0004
258 1 1.8750 -13.1250 -9.3750 -0.000082 0.000066 0.000030 -0.7686 0.5904 0.0010
259 1 1.8751 -13.1249 -5.6250 0.000107 0.000101 0.000068 -0.7778 0.5927 -0.0014
260 1 1.8750 -13.1250 -1.8750 0.000025 -0.000023 0.000011 -0.7769 0.5909 0.0003
261 1 1.8750 -13.1249 1.8750 0.000017 0.000246 -0.000018 -0.7731 0.5858 0.0001
262 1 1.8750 -13.1250 5.6250 -0.000018 0.000002 -0.000046 -0.7710 0.5954 0.0033
263 1 1.8750 -13.1249 9.3751 0.000086 0.000205 0.000103 -0.7708 0.5891 -0.0036
264 1 1.8750 -13.1250 13.1250 -0.000002 0.000097 0.000034 -0.7723 0.5916 0.0016
265 1 1.8750 -9.3750 -13.1250 -0.000005 0.000008 -0.000014 -0.2255 0.0468 -0.0013
266 1 1.8750 -9.3750 -9.3750 0.000001 -0.000050 -0.000056 -0.2212 0.0499 0.0009
267 1 1.8750 -9.3749 -5.6250 -0.000099 0.000118 -0.000031 -0.2210 0.0444 0.0019
268 1 1.8749 -9.3750 -1.8749 -0.000232 -0.000038 0.000105 -0.2123 0.0505 -0.0051
269 1 1.8749 -9.3750 1.8750 -0.000159 -0.000000 -0.000064 -0.2191 0.0512 0.0027
270 1 1.8750 -9.3750 5.6250 -0.000042 -0.000044 -0.000066 -0.2211 0.0483 0.0013
271 1 1.8750 -9.3750 9.3750 0.000085 0.000025 0.000017 -0.2254 0.0507 -0.0024
272 1 1.8749 -9.3750 13.1250 -0.000154 0.000054 -0.000037 -0.2147 0.0497 0.0012
273 1 1.8750 -5.6250 -13.1250 -0.000086 -0.000085 -0.000080 -0.2006 0.0019 0.0041
274 1 1.8750 -5.6250 -9.3750 -0.000049 -0.000010 -0.000007 -0.1993 -0.0006 -0.0019
275 1 1.8749 -5.6250 -5.6250 -0.000132 -0.000058 -0.000031 -0.1989 0.0017 -0.0004
276 1 1.8750 -5.6249 -1.8750 0.000037 0.000143 -0.000047 -0.2000 -0.0044 0.0043
277 1 1.8750 -5.6250 1.8751 -0.000052 -0.000032 0.000194 -0.2005 -0.0002 -0.0066
278 1 1.8750 -5.6250 5.6250 0.000048 -0.000020 0.000036 -0.2052 -0.0029 0.0010
279 1 1.8750 -5.6250 9.3750 0.000005 0.000018 -0.000090 -0.2031 0.0010 0.0053
280 1 1.8750 -5.6249 13.1250 -0.000015 0.000128 0.000084 -0.1999 -0.0037 -0.0060
281 1 1.8750 -1.8750 -13.1250 0.000035 -0.000047 -0.000069 -0.2111 -0.0155 0.0089
282 1 1.8750 -1.8750 -9.3750 -0.000030 -0.000007 0.000073 -0.1997 -0.0001 -0.0011
283 1 1.8750 -1.8751 -5.6249 0.000065 -0.000122 0.000129 -0.2057 -0.0077 -0.0065
284 1 1.8750 -1.8750 -1.8750 0.000039 0.000042 0.000100 -0.2181 -0.0305 -0.0061
285 1 1.8750 -1.8750 1.8750 -0.000045 -0.000062 0.000022 -0.2214 -0.0459 -0.0001
286 1 1.8750 -1.8751 5.6250 -0.000034 -0.000138 -0.000058 -0.2264 -0.0421 0.0018
287 1 1.8750 -1.8750 9.3750 -0.000033 0.000046 -0.000009 -0.2227 -0.0477 -0.0014
288 1 1.8751 -1.8750 13.1250 0.000159 -0.000034 -0.000039 -0.2249 -0.0298 0.0055
289 1 1.8751 1.8749 -13.1250 0.000152 -0.000219 -0.000020 -0.3206 -0.1339 0.0995
290 1 1.8750 1.8750 -9.3750 0.000041 -0.000021 0.000002 -0.2374 -0.0571 0.0007
291 1 1.8750 1.8750 -5.6250 -0.000097 0.000058 0.000057 -0.3129 -0.1447 -0.1032
292 1 1.8750 1.8751 -1.8751 -0.000027 0.000192 -0.000120 -0.6815 -0.5101 -0.0951
293 1 1.8749 1.8750 1.8750 -0.000131 -0.000000 -0.000046 -0.7634 -0.5888 -0.0116
294 1 1.8750 1.8750 5.6250 0.000032 0.000066 0.000037 -0.7750 -0.5965 -0.0029
295 1 1.8750 1.8750 9.3750 -0.000011 0.000032 -0.000054 -0.7613 -0.5918 0.0138
296 1 1.8750 1.8751 13.1250 0.000030 0.000116 -0.000019 -0.6829 -0.5060 0.0985
297 1 1.8751 5.6250 -13.1250 0.000115 0.000032 0.000035 -1.1483 -0.6008 0.3819
298 1 1.8750 5.6250 -9.3750 -0.000046 0.000062 -0.000052 -0.7941 -0.5967 0.0046
299 1 1.8750 5.6250 -5.6249 0.000030 0.000000 0.000117 -1.1480 -0.5912 -0.3892
300 1 1.8750 5.6249 -1.8750 0.000032 -0.000153 0.000040 5.9987 -0.5851 -0.3874
301 1 1.8750 5.6250 1.8749 0.000048 0.000095 -0.000171 5.6374 -0.5997 -0.0189
302 1 1.8751 5.6251 5.6250 0.000122 0.000181 -0.000076 5.6251 -0.6013 0.0003
303 1 1.8750 5.6249 9.3750 -0.000056 -0.000114 0.000062 5.6380 -0.5907 0.0191
304 1 1.8751 5.6250 13.1250 0.000206 0.000005 -0.000072 5.9942 -0.5933 0.3896
305 1 1.8750 9.3750 -13.1250 -0.000031 -0.000021 -0.000028 5.5544 -0.4528 0.0998
306 1 1.8750 9.3750 -9.3750 -0.000032 0.000048 -0.000026 5.6389 -0.5381 0.0002
307 1 1.8750 9.3751 -5.6250 -0.000058 0.000159 -0.000013 5.5589 -0.4612 -0.0996
308 1 1.8750 9.3750 -1.8750 -0.000069 0.000076 -0.000025 5.1972 -0.1028 -0.0994
309 1 1.8750 9.3750 1.8750 -0.000005 -0.000075 -0.000039 5.1099 -0.0030 -0.0084
310 1 1.8751 9.3750 5.6251 0.000157 -0.000067 0.000137 5.1005 0.0071 -0.0056
311 1 1.8751 9.3750 9.3750 0.000120 0.000012 -0.000011 5.1080 -0.0082 0.0148
312 1 1.8751 9.3750 13.1250 0.000251 -0.000021 0.000016 5.1909 -0.0935 0.0978
313 1 1.8750 13.1250 -13.1250 -0.000072 0.000029 0.000013 5.6426 0.5597 0.0060
314 1 1.8749 13.1250 -9.3750 -0.000102 -0.000078 -0.000061 5.6516 0.5523 0.0005
315 1 1.8751 13.1250 -5.6251 0.000121 -0.000070 -0.000104 5.6424 0.5669 -0.0016
316 1 1.8750 13.1249 -1.8749 0.000010 -0.000221 0.000101 5.6314 0.5919 -0.0097
317 1 1.8750 13.1250 1.8750 0.000037 -0.000075 0.000083 5.6263 0.6011 0.0001
318 1 1.8750 13.1250 5.6250 0.000089 0.000087 0.000053 5.6200 0.5908 -0.0006
319 1 1.8750 13.1250 9.3750 -0.000006 0.000003 -0.000012 5.6249 0.5989 0.0031
320 1 1.8750 13.1250 13.1250 -0.000032 -0.000057 0.000090 5.6314 0.5868 0.0028
321 1 5.6250 -13.1250 -13.1249 0.000056 0.000003 0.000144 5.0528 -6.2897 -0.0028
322 1 5.6250 -13.1250 -9.3749 0.000000 -0.000071 0.000166 5.0537 -6.2908 -0.0019
323 1 5.6250 -13.1250 -5.6250 -0.000015 0.000000 0.000065 5.0576 -6.2945 0.0013
324 1 5.6250 -13.1250 -1.8750 -0.000053 0.000002 0.000038 5.0565 -6.2919 -0.0020
325 1 5.6250 -13.1250 1.8750 0.000024 -0.000025 -0.000098 5.0552 -6.2909 0.0041
326 1 5.6250 -13.1250 5.6250 -0.000010 -0.000104 -0.000004 5.0551 -6.2930 -0.0021
327 1 5.6250 -13.1250 9.3750 -0.000002 -0.000038 -0.000028 5.0569 -6.2914 0.0001
328 1 5.6250 -13.1250 13.1250 0.000064 -0.000050 -0.000044 5.0541 -6.2923 0.0037
329 1 5.6250 -9.3749 -13.1250 -0.000060 0.000173 -0.000010 5.0559 0.0985 -0.0006
330 1 5.6250 -9.3750 -9.3750 0.000060 0.000060 0.000092 5.0545 0.1004 -0.0021
331 1 5.6250 -9.3750 -5.6250 0.000051 -0.000083 0.000084 5.0526 0.1099 -0.0010
332 1 5.6251 -9.3750 -1.8750 0.000119 0.000053 0.000023 5.0492 0.1006 -0.0009
333 1 5.6251 -9.3750 1.8750 0.000136 0.000094 -0.000069 5.0502 0.1051 0.0024
334 1 5.6250 -9.3750 5.6250 0.000065 -0.000091 -0.000021 5.0535 0.1103 -0.0029
335 1 5.6250 -9.3750 9.3749 -0.000012 0.000049 -0.000138 5.0569 0.1023 0.0016
336 1 5.6251 -9.3750 13.1249 0.000171 -0.000002 -0.000140 5.0500 0.1044 0.0018
337 1 5.6250 -5.6250 -13.1250 -0.000033 -0.000096 -0.000100 5.0542 0.0039 0.0099
338 1 5.6250 -5.6251 -9.3749 0.000039 -0.000121 0.000170 5.0539 0.0058 -0.0037
339 1 5.6250 -5.6250 -5.6249 0.000027 0.000070 0.000213 5.0522 -0.0025 -0.0005
340 1 5.6250 -5.6251 -1.8749 0.000067 -0.000198 0.000182 5.0549 0.0077 -0.0002
341 1 5.6250 -5.6249 1.8751 0.000030 0.000144 0.000106 5.0539 -0.0023 -0.0032
342 1 5.6250 -5.6249 5.6249 0.000007 0.000175 -0.000150 5.0562 -0.0069 0.0080
343 1 5.6250 -5.6250 9.3750 -0.000053 -0.000075 0.000057 5.0561 0.0026 -0.0011
344 1 5.6250 -5.6250 13.1251 0.000058 -0.000030 0.000178 5.0543 -0.0025 -0.0067
345 1 5.6250 -1.8751 -13.1250 -0.000071 -0.000150 -0.000061 5.0571 -0.0206 0.0149
346 1 5.6250 -1.8750 -9.3750 -0.000013 0.000030 -0.000004 5.0549 -0.0037 -0.0041
347 1 5.6250 -1.8750 -5.6251 0.000098 0.000055 -0.000154 5.0551 -0.0257 -0.0064
348 1 5.6250 -1.8750 -1.8750 0.000079 0.000024 0.000048 5.0550 -0.0866 -0.0146
349 1 5.6249 -1.8750 1.8751 -0.000158 0.000037 0.000118 5.0569 -0.1046 -0.0019
350 1 5.6249 -1.8750 5.6250 -0.000185 0.000035 0.000066 5.0576 -0.1052 -0.0000
351 1 5.6250 -1.8750 9.3750 0.000008 -0.000037 -0.000008 5.0547 -0.1055 0.0023
352 1 5.6249 -1.8751 13.1250 -0.000140 -0.000194 0.000042 5.0604 -0.0787 0.0092
353 1 5.6250 1.8750 -13.1250 0.000033 -0.000006 -0.000087 5.0577 -0.4813 0.3889
354 1 5.6250 1.8750 -9.3750 0.000065 -0.000036 -0.000012 5.0552 -0.1284 -0.0021
355 1 5.6250 1.8750 -5.6250 -0.000032 -0.000065 -0.000048 5.0540 -0.4754 -0.3851
356 1 5.6249 1.8750 -1.8750 -0.000111 0.000006 -0.000066 5.0565 6.6665 -0.3840
357 1 5.6250 1.8750 1.8750 -0.000023 0.000003 -0.000007 5.0537 6.3056 -0.0249
358 1 5.6249 1.8750 5.6250 -0.000122 -0.000074 0.000012 5.0578 6.2946 -0.0017
359 1 5.6251 1.8750 9.3750 0.000257 0.000031 -0.000059 5.0514 6.3040 0.0272
360 1 5.6249 1.8749 13.1250 -0.000102 -0.000150 0.000045 5.0573 6.6648 0.3810
361 1 5.6250 5.6250 -13.1250 0.000068 0.000009 -0.000029 5.0563 6.2927 -7.0862
362 1 5.6250 5.6250 -9.3750 0.000038 -0.000008 0.000047 5.0539 6.2922 -0.0002
363 1 5.6250 5.6250 -5.6250 -0.000077 0.000037 0.000103 5.0572 6.2911 7.0867
ITEM: TIMESTEP
10
ITEM: NUMBER OF ATOMS
363
ITEM: BOX BOUNDS pp pp pp
-15.000000 15.000000
-15.000000 15.000000
-15.000000 15.000000
ITEM: ATOMS id type xu yu zu vx vy vz fx fy fz
1 1 -13.1255 -13.1250 -13.1251 -0.000180 -0.000008 -0.000027 -5.0432 -0.0056 0.0232
2 1 -13.1260 -13.1244 -9.3748 -0.000275 0.000110 0.000034 -5.0031 -0.0330 -0.0367
3 1 -13.1250 -13.1248 -5.6256 -0.000081 0.000039 -0.000102 -5.0641 -0.0313 0.0825
4 1 -13.1254 -13.1248 -1.8740 -0.000162 0.000031 0.000189 -5.0372 0.0070 -0.0965
5 1 -13.1255 -13.1242 1.8748 -0.000178 0.000149 -0.000032 -5.0350 -0.1059 0.0624
6 1 -13.1259 -13.1247 5.6253 -0.000244 0.000061 0.000046 -5.0496 -0.0240 -0.0517