ITEM: TIMESTEP
0
ITEM: NUMBER OF ATOMS
363
ITEM: BOX BOUNDS pp pp pp
-15.000000 15.000000
-15.000000 15.000000
-15.000000 15.000000
ITEM: ATOMS id type xu yu zu vx vy vz fx fy fz
1 1 -13.1251 -13.1251 -13.1250 -0.000116 -0.000113 -0.000094 -5.0545 0.0032 0.0039
2 1 -13.1251 -13.1250 -9.3749 -0.000135 -0.000010 0.000161 -5.0500 0.0016 -0.0058
3 1 -13.1250 -13.1250 -5.6250 -0.000020 -0.000018 0.000069 -5.0556 -0.0014 -0.0018
4 1 -13.1249 -13.1251 -1.8751 0.000097 -0.000105 -0.000137 -5.0547 0.0000 0.0049
5 1 -13.1250 -13.1250 1.8750 0.000000 -0.000010 -0.000057 -5.0533 0.0002 0.0009
6 1 -13.1250 -13.1250 5.6250 -0.000058 -0.000046 0.000082 -5.0542 0.0003 -0.0054
7 1 -13.1250 -13.1250 9.3750 0.000001 0.000057 -0.000094 -5.0542 -0.0007 0.0027
8 1 -13.1250 -13.1250 13.1249 0.000025 0.000028 -0.000100 -5.0535 0.0012 -0.0002
9 1 -13.1250 -9.3750 -13.1250 0.000019 -0.000034 0.000015 -5.0533 -0.0044 -0.0054
10 1 -13.1250 -9.3750 -9.3751 -0.000026 0.000064 -0.000191 -5.0538 -0.0048 0.0056
11 1 -13.1250 -9.3750 -5.6250 0.000032 -0.000081 -0.000041 -5.0555 0.0020 -0.0039
12 1 -13.1250 -9.3750 -1.8750 -0.000006 -0.000084 -0.000088 -5.0553 -0.0022 0.0020
13 1 -13.1250 -9.3750 1.8750 -0.000019 0.000016 -0.000026 -5.0550 -0.0008 -0.0011
14 1 -13.1250 -9.3751 5.6250 -0.000057 -0.000184 -0.000026 -5.0533 0.0059 0.0012
15 1 -13.1250 -9.3750 9.3750 0.000021 0.000058 0.000047 -5.0538 0.0018 -0.0034
16 1 -13.1249 -9.3750 13.1250 0.000103 0.000038 -0.000081 -5.0585 -0.0021 0.0039
17 1 -13.1250 -5.6251 -13.1250 0.000054 -0.000193 -0.000070 -5.0589 0.0054 0.0038
18 1 -13.1250 -5.6251 -9.3749 0.000046 -0.000141 0.000111 -5.0534 0.0065 -0.0052
19 1 -13.1250 -5.6250 -5.6250 0.000040 -0.000021 -0.000018 -5.0557 0.0002 0.0016
20 1 -13.1250 -5.6251 -1.8750 0.000071 -0.000163 -0.000068 -5.0540 0.0020 0.0004
21 1 -13.1250 -5.6250 1.8750 0.000020 -0.000020 -0.000099 -5.0571 0.0028 0.0011
22 1 -13.1250 -5.6250 5.6250 -0.000008 0.000047 -0.000057 -5.0548 -0.0039 0.0011
23 1 -13.1250 -5.6249 9.3750 0.000070 0.000139 0.000046 -5.0564 -0.0033 -0.0034
24 1 -13.1250 -5.6250 13.1250 0.000092 -0.000072 -0.000030 -5.0578 0.0024 0.0007
25 1 -13.1250 -1.8750 -13.1251 -0.000106 -0.000027 -0.000136 -5.0556 -0.0020 0.0027
26 1 -13.1250 -1.8750 -9.3750 -0.000004 0.000027 0.000033 -5.0551 -0.0047 -0.0045
27 1 -13.1251 -1.8750 -5.6250 -0.000215 0.000037 -0.000054 -5.0522 -0.0004 0.0006
28 1 -13.1250 -1.8750 -1.8751 0.000061 -0.000098 -0.000103 -5.0553 -0.0005 0.0013
29 1 -13.1250 -1.8750 1.8750 0.000022 0.000093 -0.000074 -5.0571 -0.0041 -0.0018
30 1 -13.1250 -1.8750 5.6249 0.000046 0.000063 -0.000141 -5.0535 -0.0001 0.0048
31 1 -13.1250 -1.8750 9.3750 -0.000092 0.000015 0.000087 -5.0537 0.0048 -0.0079
32 1 -13.1250 -1.8750 13.1249 -0.000054 -0.000036 -0.000136 -5.0545 -0.0030 0.0037
33 1 -13.1251 1.8750 -13.1250 -0.000200 0.000032 -0.000030 -5.0540 -0.0013 -0.0015
34 1 -13.1250 1.8750 -9.3751 -0.000004 -0.000062 -0.000101 -5.0522 0.0025 0.0021
35 1 -13.1250 1.8750 -5.6250 -0.000056 0.000072 -0.000034 -5.0570 -0.0010 -0.0024
36 1 -13.1250 1.8750 -1.8750 0.000051 -0.000037 -0.000091 -5.0580 -0.0009 0.0029
37 1 -13.1249 1.8750 1.8750 0.000101 -0.000039 0.000017 -5.0573 0.0042 -0.0003
38 1 -13.1250 1.8750 5.6250 -0.000004 0.000055 0.000092 -5.0558 0.0016 -0.0040
39 1 -13.1250 1.8751 9.3750 0.000000 0.000140 -0.000078 -5.0578 -0.0058 0.0036
40 1 -13.1250 1.8749 13.1250 -0.000093 -0.000150 -0.000047 -5.0517 0.0041 -0.0004
41 1 -13.1249 5.6250 -13.1249 0.000097 0.000002 0.000111 -5.0568 -0.0029 0.0001
42 1 -13.1250 5.6250 -9.3750 -0.000081 -0.000001 0.000096 -5.0522 -0.0005 -0.0003
43 1 -13.1250 5.6250 -5.6250 -0.000023 0.000031 0.000038 -5.0527 -0.0003 -0.0004
44 1 -13.1250 5.6250 -1.8750 0.000023 -0.000016 -0.000061 -5.0582 0.0006 0.0013
45 1 -13.1250 5.6250 1.8750 0.000086 0.000065 -0.000093 -5.0569 -0.0043 0.0031
46 1 -13.1250 5.6251 5.6250 0.000042 0.000124 0.000056 -5.0559 -0.0046 -0.0061
47 1 -13.1250 5.6250 9.3749 0.000008 -0.000076 -0.000144 -5.0586 0.0043 0.0076
48 1 -13.1250 5.6250 13.1251 -0.000090 -0.000005 0.000101 -5.0556 -0.0020 -0.0041
49 1 -13.1250 9.3749 -13.1250 -0.000049 -0.000187 -0.000071 -5.0533 0.0063 0.0061
50 1 -13.1249 9.3750 -9.3750 0.000113 0.000024 0.000053 -5.0585 -0.0006 -0.0036
51 1 -13.1250 9.3750 -5.6250 -0.000007 -0.000030 -0.000013 -5.0552 0.0010 0.0004
52 1 -13.1250 9.3750 -1.8750 0.000029 0.000047 -0.000048 -5.0562 -0.0036 -0.0005
53 1 -13.1250 9.3750 1.8750 -0.000095 -0.000067 -0.000098 -5.0548 0.0028 0.0012
54 1 -13.1250 9.3750 5.6250 -0.000107 -0.000075 -0.000062 -5.0548 0.0072 0.0022
55 1 -13.1250 9.3750 9.3751 0.000038 -0.000027 0.000109 -5.0531 -0.0003 -0.0017
56 1 -13.1250 9.3750 13.1251 -0.000008 0.000027 0.000168 -5.0555 0.0007 -0.0052
57 1 -13.1250 13.1250 -13.1249 0.000079 0.000005 0.000181 -5.0586 -0.0058 -0.0033
58 1 -13.1250 13.1250 -9.3750 -0.000043 0.000003 0.000080 -5.0557 0.0001 0.0008
59 1 -13.1250 13.1250 -5.6250 -0.000044 -0.000034 0.000007 -5.0535 0.0004 0.0014
60 1 -13.1250 13.1249 -1.8750 0.000012 -0.000104 0.000005 -5.0593 0.0025 0.0023
61 1 -13.1250 13.1250 1.8751 -0.000019 -0.000033 0.000112 -5.0576 -0.0004 -0.0048
62 1 -13.1250 13.1251 5.6250 -0.000020 0.000122 -0.000074 -5.0560 -0.0063 0.0064
63 1 -13.1250 13.1250 9.3750 -0.000108 0.000008 0.000096 -5.0558 0.0002 -0.0035
64 1 -13.1250 13.1250 13.1250 0.000012 0.000071 0.000057 -5.0540 -0.0013 0.0032
65 1 -9.3750 -13.1250 -13.1249 -0.000044 -0.000003 0.000147 0.1982 -0.0033 -0.0027
66 1 -9.3749 -13.1250 -9.3750 0.000169 0.000059 0.000006 0.1952 -0.0002 0.0030
67 1 -9.3750 -13.1250 -5.6250 -0.000033 -0.000036 0.000013 0.1988 0.0013 -0.0008
68 1 -9.3749 -13.1250 -1.8750 0.000109 0.000017 -0.000026 0.2011 0.0012 0.0021
69 1 -9.3749 -13.1250 1.8750 0.000112 -0.000065 0.000037 0.1982 0.0020 -0.0022
70 1 -9.3750 -13.1250 5.6250 0.000012 0.000021 -0.000031 0.1983 0.0027 -0.0004
71 1 -9.3750 -13.1250 9.3749 0.000061 0.000017 -0.000105 0.1985 -0.0006 0.0047
72 1 -9.3749 -13.1250 13.1250 0.000123 -0.000046 0.000094 0.1977 0.0002 -0.0022
73 1 -9.3749 -9.3751 -13.1250 0.000122 -0.000126 0.000008 0.1981 0.0060 0.0022
74 1 -9.3750 -9.3750 -9.3750 0.000065 0.000066 -0.000011 0.2003 0.0005 0.0020
75 1 -9.3750 -9.3750 -5.6250 0.000016 0.000016 0.000078 0.2014 -0.0007 -0.0051
76 1 -9.3750 -9.3750 -1.8751 0.000011 0.000084 -0.000140 0.1989 0.0004 0.0069
77 1 -9.3750 -9.3750 1.8750 0.000002 -0.000001 0.000040 0.2012 -0.0000 -0.0042
78 1 -9.3750 -9.3749 5.6250 0.000063 0.000124 -0.000026 0.1951 -0.0044 0.0005
79 1 -9.3749 -9.3750 9.3750 0.000107 0.000029 -0.000063 0.1986 -0.0002 0.0045
80 1 -9.3750 -9.3750 13.1251 -0.000080 0.000018 0.000173 0.2052 0.0007 -0.0067
81 1 -9.3751 -5.6249 -13.1249 -0.000151 0.000108 0.000209 0.2076 -0.0065 -0.0074
82 1 -9.3749 -5.6250 -9.3750 0.000141 0.000079 -0.000037 0.1949 -0.0008 0.0030
83 1 -9.3750 -5.6250 -5.6251 0.000010 0.000026 -0.000113 0.2002 0.0029 0.0021
84 1 -9.3749 -5.6249 -1.8750 0.000136 0.000150 -0.000041 0.2015 -0.0028 -0.0006
85 1 -9.3750 -5.6250 1.8750 -0.000076 0.000076 -0.000003 0.2039 -0.0044 -0.0017
86 1 -9.3750 -5.6250 5.6250 0.000026 -0.000047 -0.000069 0.1993 0.0005 0.0060
87 1 -9.3750 -5.6250 9.3751 -0.000004 0.000039 0.000208 0.2028 -0.0028 -0.0080
88 1 -9.3750 -5.6249 13.1250 -0.000051 0.000119 -0.000004 0.2046 -0.0033 0.0077
89 1 -9.3751 -1.8750 -13.1250 -0.000111 -0.000027 0.000011 0.2038 0.0034 -0.0019
90 1 -9.3750 -1.8750 -9.3750 -0.000007 0.000027 -0.000078 0.1997 -0.0003 0.0031
91 1 -9.3750 -1.8749 -5.6250 0.000002 0.000195 0.000016 0.1981 -0.0065 -0.0015
92 1 -9.3750 -1.8750 -1.8750 0.000042 0.000009 0.000016 0.2009 0.0024 -0.0025
93 1 -9.3750 -1.8751 1.8749 -0.000065 -0.000103 -0.000139 0.2020 0.0049 0.0076
94 1 -9.3749 -1.8751 5.6251 0.000130 -0.000169 0.000148 0.1966 0.0048 -0.0078
95 1 -9.3750 -1.8751 9.3750 0.000017 -0.000107 -0.000040 0.1976 0.0057 0.0037
96 1 -9.3750 -1.8750 13.1250 -0.000010 0.000003 -0.000011 0.2014 0.0019 -0.0001
97 1 -9.3750 1.8750 -13.1251 -0.000091 0.000031 -0.000171 0.1987 -0.0016 0.0045
98 1 -9.3749 1.8750 -9.3750 0.000149 -0.000035 -0.000047 0.1972 -0.0026 0.0001
99 1 -9.3751 1.8750 -5.6250 -0.000145 -0.000033 0.000077 0.2005 0.0055 -0.0041
100 1 -9.3750 1.8750 -1.8750 -0.000098 -0.000015 -0.000051 0.2026 0.0025 0.0019
101 1 -9.3750 1.8750 1.8750 -0.000017 0.000007 -0.000069 0.2029 -0.0002 0.0000
102 1 -9.3750 1.8750 5.6250 -0.000015 0.000003 -0.000067 0.1999 -0.0025 -0.0008
103 1 -9.3751 1.8750 9.3750 -0.000143 0.000074 -0.000089 0.2014 -0.0023 0.0014
104 1 -9.3749 1.8750 13.1250 0.000103 -0.000021 -0.000016 0.1967 -0.0000 -0.0042
105 1 -9.3750 5.6250 -13.1250 -0.000027 -0.000014 -0.000065 0.2007 0.0011 0.0009
106 1 -9.3749 5.6249 -9.3750 0.000118 -0.000232 -0.000085 0.1962 0.0083 0.0005
107 1 -9.3749 5.6250 -5.6250 0.000118 0.000045 -0.000051 0.1978 -0.0042 -0.0026
108 1 -9.3751 5.6250 -1.8751 -0.000133 0.000100 -0.000137 0.2044 -0.0053 0.0037
109 1 -9.3750 5.6250 1.8750 -0.000015 0.000097 0.000007 0.2028 -0.0018 -0.0056
110 1 -9.3750 5.6250 5.6249 -0.000003 0.000039 -0.000159 0.2015 -0.0025 0.0071
111 1 -9.3751 5.6251 9.3751 -0.000169 0.000125 0.000110 0.2091 -0.0029 -0.0061
112 1 -9.3750 5.6250 13.1250 -0.000086 -0.000050 0.000020 0.2020 -0.0020 0.0002
113 1 -9.3750 9.3750 -13.1250 0.000083 -0.000013 0.000055 0.1990 -0.0005 0.0012
114 1 -9.3750 9.3750 -9.3750 -0.000089 0.000084 0.000050 0.2044 -0.0063 0.0018
115 1 -9.3750 9.3749 -5.6249 0.000008 -0.000126 0.000120 0.2010 0.0050 -0.0014
116 1 -9.3750 9.3750 -1.8750 -0.000031 -0.000082 0.000080 0.2063 0.0043 -0.0003
117 1 -9.3750 9.3750 1.8750 -0.000050 0.000076 0.000000 0.2029 -0.0006 0.0026
118 1 -9.3750 9.3750 5.6250 -0.000057 -0.000049 0.000058 0.2006 0.0034 -0.0004
119 1 -9.3749 9.3750 9.3750 0.000135 -0.000022 0.000064 0.1954 0.0026 0.0007
120 1 -9.3750 9.3749 13.1251 -0.000021 -0.000166 0.000101 0.2032 0.0028 -0.0013
121 1 -9.3751 13.1250 -13.1250 -0.000124 -0.000057 -0.000097 0.2068 0.0017 -0.0004
122 1 -9.3750 13.1250 -9.3751 -0.000054 0.000036 -0.000157 0.1992 0.0015 0.0010
123 1 -9.3750 13.1250 -5.6251 0.000062 -0.000005 -0.000105 0.1977 -0.0028 0.0000
124 1 -9.3751 13.1250 -1.8750 -0.000200 -0.000007 -0.000016 0.2073 -0.0009 -0.0028
125 1 -9.3751 13.1250 1.8750 -0.000145 -0.000001 -0.000062 0.2044 0.0002 0.0007
126 1 -9.3750 13.1250 5.6250 -0.000067 0.000058 -0.000054 0.2005 -0.0023 -0.0010
127 1 -9.3751 13.1250 9.3750 -0.000106 -0.000034 -0.000087 0.2009 0.0010 0.0015
128 1 -9.3750 13.1250 13.1250 0.000084 -0.000086 -0.000009 0.1988 -0.0011 -0.0033
129 1 -5.6250 -13.1249 -13.1250 -0.000078 0.000109 -0.000030 0.0004 -0.0060 -0.0040
130 1 -5.6249 -13.1249 -9.3751 0.000126 0.000239 -0.000164 0.0000 -0.0077 0.0043
131 1 -5.6251 -13.1250 -5.6250 -0.000115 0.000096 -0.000010 0.0020 -0.0038 -0.0036
132 1 -5.6249 -13.1250 -1.8750 0.000112 -0.000068 -0.000046 -0.0009 0.0047 0.0028
133 1 -5.6250 -13.1250 1.8750 0.000060 -0.000006 0.000092 -0.0001 0.0013 -0.0008
134 1 -5.6250 -13.1249 5.6251 -0.000042 0.000101 0.000149 0.0031 -0.0059 -0.0019
135 1 -5.6250 -13.1250 9.3750 -0.000008 -0.000097 0.000057 0.0030 0.0053 -0.0009
136 1 -5.6250 -13.1250 13.1250 0.000032 0.000042 -0.000086 0.0036 0.0008 0.0033
137 1 -5.6250 -9.3750 -13.1249 0.000046 -0.000032 0.000131 -0.0022 0.0055 -0.0018
138 1 -5.6249 -9.3750 -9.3749 0.000138 -0.000018 0.000132 -0.0023 0.0038 -0.0021
139 1 -5.6250 -9.3750 -5.6250 0.000030 -0.000034 -0.000027 -0.0042 0.0003 0.0026
140 1 -5.6250 -9.3749 -1.8750 -0.000057 0.000104 -0.000033 0.0037 -0.0089 -0.0008
141 1 -5.6250 -9.3750 1.8750 0.000053 0.000060 -0.000079 -0.0017 -0.0030 0.0026
142 1 -5.6251 -9.3750 5.6250 -0.000130 -0.000031 0.000047 0.0069 0.0032 -0.0015
143 1 -5.6250 -9.3749 9.3750 0.000055 0.000120 0.000092 -0.0010 -0.0087 -0.0021
144 1 -5.6250 -9.3749 13.1250 0.000018 0.000153 -0.000006 -0.0020 -0.0081 0.0043
145 1 -5.6250 -5.6249 -13.1251 0.000063 0.000141 -0.000134 -0.0034 -0.0047 0.0050
146 1 -5.6251 -5.6250 -9.3750 -0.000116 -0.000065 0.000019 0.0051 0.0013 -0.0026
147 1 -5.6250 -5.6251 -5.6250 -0.000034 -0.000140 0.000029 -0.0018 0.0037 -0.0002
148 1 -5.6249 -5.6251 -1.8750 0.000210 -0.000226 0.000006 -0.0047 0.0082 0.0003
149 1 -5.6250 -5.6250 1.8750 0.000025 -0.000039 0.000001 -0.0057 0.0040 0.0006
150 1 -5.6250 -5.6250 5.6250 -0.000023 0.000034 0.000025 0.0050 -0.0010 -0.0017
151 1 -5.6250 -5.6251 9.3750 0.000039 -0.000147 -0.000054 -0.0027 0.0075 0.0025
152 1 -5.6250 -5.6251 13.1250 0.000019 -0.000205 0.000029 -0.0008 0.0080 -0.0046
153 1 -5.6250 -1.8750 -13.1250 0.000062 0.000010 0.000030 -0.0011 0.0015 -0.0000
154 1 -5.6250 -1.8750 -9.3750 -0.000059 -0.000024 -0.000010 -0.0010 -0.0008 0.0002
155 1 -5.6250 -1.8750 -5.6250 0.000072 -0.000015 -0.000042 -0.0023 -0.0009 0.0014
156 1 -5.6250 -1.8750 -1.8750 0.000025 -0.000061 0.000012 -0.0009 -0.0027 0.0008
157 1 -5.6250 -1.8750 1.8751 -0.000061 0.000084 0.000110 0.0036 -0.0047 -0.0051
158 1 -5.6250 -1.8750 5.6250 -0.000046 0.000026 -0.000090 0.0056 -0.0022 0.0044
159 1 -5.6250 -1.8750 9.3750 -0.000043 0.000029 -0.000017 0.0009 -0.0020 0.0000
160 1 -5.6250 -1.8750 13.1250 0.000075 -0.000073 0.000057 -0.0020 -0.0020 -0.0017
161 1 -5.6250 1.8750 -13.1250 -0.000060 -0.000053 0.000041 0.0029 0.0028 -0.0020
162 1 -5.6250 1.8750 -9.3750 0.000065 -0.000021 0.000005 0.0022 0.0025 -0.0012
163 1 -5.6251 1.8750 -5.6251 -0.000198 0.000075 -0.000100 0.0021 -0.0039 0.0044
164 1 -5.6251 1.8750 -1.8750 -0.000133 -0.000018 0.000062 0.0026 0.0009 -0.0016
165 1 -5.6250 1.8750 1.8751 -0.000024 -0.000068 0.000119 0.0010 0.0029 -0.0029
166 1 -5.6250 1.8749 5.6250 -0.000071 -0.000113 -0.000014 0.0035 0.0040 0.0015
167 1 -5.6251 1.8750 9.3750 -0.000220 0.000086 -0.000063 0.0030 -0.0053 0.0010
168 1 -5.6250 1.8750 13.1250 0.000040 -0.000037 -0.000049 -0.0011 0.0009 0.0012
169 1 -5.6251 5.6250 -13.1250 -0.000144 0.000050 -0.000062 -0.0001 -0.0056 -0.0003
170 1 -5.6250 5.6251 -9.3750 0.000053 0.000116 -0.000016 -0.0013 -0.0024 -0.0012
171 1 -5.6250 5.6250 -5.6250 0.000062 -0.000071 -0.000040 -0.0006 0.0007 -0.0001
172 1 -5.6250 5.6250 -1.8750 -0.000051 0.000073 -0.000066 -0.0012 -0.0020 0.0027
173 1 -5.6250 5.6250 1.8750 -0.000005 -0.000045 0.000076 -0.0004 0.0011 -0.0011
174 1 -5.6250 5.6250 5.6251 -0.000012 -0.000000 0.000153 0.0033 -0.0025 -0.0015
175 1 -5.6249 5.6249 9.3750 0.000144 -0.000170 0.000097 -0.0082 0.0081 -0.0025
176 1 -5.6250 5.6250 13.1249 0.000002 0.000050 -0.000124 -0.0012 -0.0008 0.0050
177 1 -5.6250 9.3749 -13.1250 0.000088 -0.000155 0.000016 -0.0026 0.0042 0.0004
178 1 -5.6250 9.3750 -9.3750 -0.000063 0.000089 0.000047 0.0000 0.0002 0.0005
179 1 -5.6250 9.3749 -5.6249 0.000044 -0.000151 0.000105 -0.0024 0.0034 0.0001
180 1 -5.6249 9.3750 -1.8749 0.000205 0.000026 0.000156 -0.0064 0.0012 -0.0006
181 1 -5.6249 9.3750 1.8751 0.000115 0.000054 0.000145 -0.0068 -0.0025 -0.0014
182 1 -5.6250 9.3750 5.6250 -0.000002 -0.000019 0.000013 -0.0049 -0.0017 0.0032
183 1 -5.6251 9.3750 9.3750 -0.000108 0.000066 0.000062 0.0053 -0.0055 -0.0020
184 1 -5.6249 9.3750 13.1250 0.000115 0.000064 0.000006 -0.0047 -0.0018 0.0015
185 1 -5.6250 13.1250 -13.1249 0.000037 -0.000082 0.000105 -0.0056 0.0019 -0.0035
186 1 -5.6251 13.1250 -9.3749 -0.000129 0.000039 0.000104 -0.0005 0.0048 -0.0019
187 1 -5.6250 13.1250 -5.6250 -0.000018 -0.000001 -0.000039 0.0002 -0.0010 0.0068
188 1 -5.6250 13.1250 -1.8749 -0.000004 0.000032 0.000199 0.0003 -0.0019 -0.0100
189 1 -5.6250 13.1250 1.8749 -0.000044 0.000003 -0.000144 0.0006 0.0007 0.0086
190 1 -5.6251 13.1249 5.6250 -0.000125 -0.000117 0.000023 0.0024 0.0051 -0.0015
191 1 -5.6250 13.1250 9.3751 -0.000062 -0.000004 0.000113 0.0022 -0.0001 -0.0055
192 1 -5.6250 13.1250 13.1249 0.000023 -0.000047 -0.000121 0.0023 0.0036 0.0080
193 1 -1.8750 -13.1249 -13.1250 -0.000058 0.000199 0.000029 -0.0494 0.0178 -0.0013
194 1 -1.8750 -13.1249 -9.3750 0.000041 0.000144 -0.000046 -0.0458 0.0187 0.0034
195 1 -1.8750 -13.1250 -5.6250 -0.000045 -0.000026 0.000068 -0.0466 0.0220 -0.0022
196 1 -1.8750 -13.1250 -1.8750 0.000031 -0.000057 0.000047 -0.0468 0.0271 -0.0018
197 1 -1.8750 -13.1250 1.8750 -0.000008 0.000053 -0.000093 -0.0485 0.0273 -0.0004
198 1 -1.8750 -13.1250 5.6249 0.000075 -0.000050 -0.000218 -0.0526 0.0282 0.0064
199 1 -1.8750 -13.1251 9.3750 0.000092 -0.000161 0.000084 -0.0504 0.0291 -0.0064
200 1 -1.8749 -13.1251 13.1250 0.000123 -0.000166 0.000023 -0.0463 0.0304 0.0014
201 1 -1.8751 -9.3750 -13.1250 -0.000158 0.000085 0.000086 0.0052 -0.0026 -0.0043
202 1 -1.8750 -9.3750 -9.3750 0.000055 -0.000042 -0.000044 0.0004 0.0023 0.0038
203 1 -1.8751 -9.3750 -5.6250 -0.000191 -0.000040 0.000048 0.0076 0.0020 -0.0032
204 1 -1.8749 -9.3750 -1.8750 0.000109 0.000004 -0.000043 -0.0075 -0.0033 0.0041
205 1 -1.8750 -9.3749 1.8751 -0.000010 0.000159 0.000101 0.0003 -0.0042 -0.0029
206 1 -1.8750 -9.3750 5.6250 0.000087 0.000030 0.000047 -0.0033 -0.0018 -0.0001
207 1 -1.8750 -9.3749 9.3750 -0.000066 0.000174 -0.000026 0.0040 -0.0082 0.0008
208 1 -1.8750 -9.3750 13.1250 0.000014 0.000026 -0.000033 0.0013 -0.0054 0.0020
209 1 -1.8750 -5.6251 -13.1251 0.000074 -0.000192 -0.000106 -0.0014 0.0070 0.0036
210 1 -1.8750 -5.6250 -9.3750 -0.000058 -0.000087 -0.000055 -0.0004 0.0014 -0.0012
211 1 -1.8751 -5.6250 -5.6250 -0.000157 0.000056 -0.000054 0.0040 -0.0005 0.0023
212 1 -1.8750 -5.6251 -1.8750 -0.000027 -0.000107 0.000088 0.0043 0.0043 -0.0069
213 1 -1.8751 -5.6250 1.8749 -0.000175 0.000002 -0.000169 0.0032 0.0061 0.0067
214 1 -1.8749 -5.6250 5.6250 0.000201 0.000014 -0.000009 -0.0046 -0.0003 -0.0021
215 1 -1.8750 -5.6250 9.3750 -0.000072 0.000032 0.000041 0.0032 0.0037 -0.0006
216 1 -1.8750 -5.6250 13.1250 0.000048 -0.000067 0.000054 0.0015 0.0005 -0.0032
217 1 -1.8749 -1.8750 -13.1250 0.000162 -0.000043 0.000040 -0.0039 -0.0014 0.0019
218 1 -1.8751 -1.8750 -9.3750 -0.000140 -0.000046 0.000018 0.0038 -0.0022 0.0004
219 1 -1.8750 -1.8750 -5.6250 -0.000018 0.000094 0.000010 0.0002 -0.0033 -0.0006
220 1 -1.8750 -1.8750 -1.8750 -0.000037 0.000045 -0.000035 0.0026 -0.0054 0.0032
221 1 -1.8749 -1.8749 1.8751 0.000152 0.000165 0.000102 -0.0075 -0.0035 -0.0025
222 1 -1.8750 -1.8750 5.6250 0.000080 -0.000019 0.000068 -0.0057 0.0012 -0.0009
223 1 -1.8750 -1.8750 9.3750 -0.000047 0.000081 -0.000035 0.0028 -0.0012 0.0055
224 1 -1.8750 -1.8751 13.1251 0.000039 -0.000140 0.000161 0.0016 0.0018 -0.0051
225 1 -1.8749 1.8750 -13.1250 0.000144 0.000038 0.000040 -0.0163 -0.0076 0.0062
226 1 -1.8750 1.8749 -9.3750 0.000071 -0.000112 0.000083 -0.0000 0.0049 -0.0004
227 1 -1.8750 1.8750 -5.6250 -0.000085 -0.000072 0.000079 -0.0123 -0.0027 -0.0064
228 1 -1.8750 1.8749 -1.8750 -0.000012 -0.000101 0.000016 -0.0370 -0.0152 -0.0071
229 1 -1.8750 1.8751 1.8749 0.000012 0.000112 -0.000129 -0.0481 -0.0256 0.0046
230 1 -1.8750 1.8750 5.6250 0.000064 0.000027 0.000015 -0.0515 -0.0209 -0.0055
231 1 -1.8750 1.8750 9.3749 -0.000078 0.000037 -0.000134 -0.0493 -0.0230 0.0047
232 1 -1.8751 1.8750 13.1250 -0.000104 -0.000081 -0.000005 -0.0309 -0.0206 0.0045
233 1 -1.8751 5.6250 -13.1251 -0.000223 0.000011 -0.000192 -0.0647 -0.0233 0.0122
234 1 -1.8751 5.6251 -9.3750 -0.000102 0.000112 -0.000083 -0.0440 -0.0297 -0.0029
235 1 -1.8750 5.6250 -5.6251 -0.000051 -0.000060 -0.000107 -0.0686 -0.0202 -0.0126
236 1 -1.8750 5.6250 -1.8751 -0.000013 -0.000079 -0.000120 -0.1318 -0.0219 -0.0102
237 1 -1.8750 5.6250 1.8750 -0.000017 -0.000064 -0.000010 -0.1524 -0.0215 -0.0043
238 1 -1.8749 5.6251 5.6249 0.000163 0.000223 -0.000127 -0.1592 -0.0298 0.0020
239 1 -1.8750 5.6250 9.3750 -0.000043 0.000014 -0.000092 -0.1482 -0.0208 -0.0042
240 1 -1.8750 5.6249 13.1249 0.000034 -0.000150 -0.000258 -0.1339 -0.0188 0.0152
241 1 -1.8750 9.3750 -13.1250 -0.000072 -0.000004 -0.000069 -0.1607 -0.0184 0.0075
242 1 -1.8750 9.3750 -9.3750 -0.000019 -0.000018 0.000075 -0.1550 -0.0205 -0.0019
243 1 -1.8750 9.3751 -5.6249 -0.000056 0.000149 0.000101 -0.1638 -0.0252 -0.0081
244 1 -1.8750 9.3750 -1.8750 0.000050 0.000056 -0.000024 -0.1870 -0.0076 -0.0042
245 1 -1.8751 9.3749 1.8750 -0.000108 -0.000103 -0.000048 -0.1955 0.0042 0.0004
246 1 -1.8751 9.3750 5.6250 -0.000217 0.000039 -0.000034 -0.1947 0.0051 0.0008
247 1 -1.8750 9.3751 9.3750 -0.000031 0.000146 0.000035 -0.2005 -0.0080 -0.0038
248 1 -1.8750 9.3750 13.1249 -0.000031 0.000091 -0.000115 -0.1852 -0.0110 0.0091
249 1 -1.8751 13.1250 -13.1250 -0.000114 -0.000046 -0.000055 -0.1475 0.0289 0.0036
250 1 -1.8751 13.1250 -9.3750 -0.000191 0.000038 0.000080 -0.1483 0.0248 -0.0032
251 1 -1.8750 13.1250 -5.6250 -0.000097 -0.000084 0.000026 -0.1493 0.0285 0.0012
252 1 -1.8749 13.1250 -1.8750 0.000220 0.000082 0.000041 -0.1614 0.0210 -0.0006
253 1 -1.8749 13.1251 1.8750 0.000101 0.000124 0.000022 -0.1551 0.0186 0.0017
254 1 -1.8750 13.1251 5.6250 -0.000033 0.000127 0.000069 -0.1569 0.0194 -0.0018
255 1 -1.8749 13.1249 9.3750 0.000103 -0.000180 -0.000011 -0.1540 0.0290 0.0019
256 1 -1.8750 13.1250 13.1250 0.000083 0.000048 0.000025 -0.1561 0.0210 -0.0019
257 1 1.8749 -13.1249 -13.1250 -0.000134 0.000138 0.000044 -0.7704 0.5883 -0.0009
258 1 1.8750 -13.1250 -9.3750 0.000017 -0.000015 0.000006 -0.7718 0.5959 0.0004
259 1 1.8750 -13.1249 -5.6250 0.000067 0.000141 -0.000021 -0.7728 0.5884 -0.0009
260 1 1.8750 -13.1250 -1.8750 -0.000015 0.000048 -0.000082 -0.7695 0.5916 0.0015
261 1 1.8749 -13.1250 1.8750 -0.000130 -0.000040 -0.000044 -0.7659 0.5962 0.0018
262 1 1.8749 -13.1250 5.6250 -0.000107 -0.000034 0.000088 -0.7689 0.5971 -0.0044
263 1 1.8750 -13.1250 9.3750 0.000019 -0.000035 -0.000042 -0.7718 0.5976 0.0034
264 1 1.8751 -13.1250 13.1250 0.000246 -0.000068 0.000033 -0.7772 0.5952 -0.0013
265 1 1.8750 -9.3750 -13.1249 -0.000037 0.000073 0.000119 -0.2218 0.0465 -0.0002
266 1 1.8750 -9.3750 -9.3750 -0.000038 0.000006 -0.000048 -0.2215 0.0462 0.0036
267 1 1.8750 -9.3750 -5.6250 0.000044 -0.000092 -0.000005 -0.2317 0.0533 -0.0008
268 1 1.8749 -9.3750 -1.8750 -0.000164 -0.000042 0.000003 -0.2166 0.0515 -0.0013
269 1 1.8750 -9.3750 1.8750 -0.000058 0.000014 -0.000062 -0.2246 0.0452 0.0029
270 1 1.8751 -9.3750 5.6250 0.000117 -0.000088 0.000055 -0.2261 0.0489 -0.0017
271 1 1.8750 -9.3750 9.3750 0.000060 0.000039 0.000082 -0.2279 0.0473 0.0027
272 1 1.8750 -9.3750 13.1251 0.000080 -0.000063 0.000243 -0.2245 0.0467 -0.0043
273 1 1.8750 -5.6250 -13.1251 -0.000008 -0.000063 -0.000210 -0.1984 0.0046 0.0074
274 1 1.8750 -5.6250 -9.3750 -0.000014 -0.000034 -0.000038 -0.1995 0.0011 -0.0013
275 1 1.8750 -5.6250 -5.6250 -0.000035 0.000018 0.000071 -0.2008 -0.0019 -0.0025
276 1 1.8750 -5.6250 -1.8750 -0.000038 0.000094 0.000023 -0.1985 -0.0058 -0.0001
277 1 1.8749 -5.6250 1.8750 -0.000140 -0.000049 -0.000041 -0.1973 0.0043 0.0001
278 1 1.8751 -5.6250 5.6249 0.000125 -0.000027 -0.000110 -0.1971 -0.0018 0.0071
279 1 1.8750 -5.6249 9.3751 0.000019 0.000105 0.000225 -0.2015 -0.0021 -0.0081
280 1 1.8751 -5.6250 13.1250 0.000148 -0.000079 0.000085 -0.2059 0.0013 -0.0028
281 1 1.8750 -1.8750 -13.1249 0.000019 0.000045 0.000161 -0.2037 -0.0116 -0.0016
282 1 1.8750 -1.8750 -9.3750 0.000028 -0.000018 -0.000071 -0.2057 -0.0010 0.0047
283 1 1.8749 -1.8750 -5.6250 -0.000120 0.000029 -0.000029 -0.2031 -0.0130 -0.0087
284 1 1.8750 -1.8751 -1.8751 0.000049 -0.000110 -0.000122 -0.2219 -0.0312 -0.0017
285 1 1.8750 -1.8749 1.8750 -0.000083 0.000137 0.000036 -0.2190 -0.0478 -0.0029
286 1 1.8750 -1.8750 5.6250 -0.000099 -0.000056 0.000030 -0.2222 -0.0452 -0.0003
287 1 1.8751 -1.8750 9.3750 0.000101 0.000018 0.000004 -0.2292 -0.0470 -0.0011
288 1 1.8750 -1.8750 13.1250 0.000086 -0.000004 -0.000070 -0.2208 -0.0357 0.0110
289 1 1.8750 1.8751 -13.1251 0.000058 0.000146 -0.000111 -0.3149 -0.1453 0.1023
290 1 1.8750 1.8750 -9.3750 0.000049 -0.000050 0.000053 -0.2369 -0.0595 -0.0014
291 1 1.8750 1.8750 -5.6249 0.000014 -0.000048 0.000131 -0.3240 -0.1375 -0.1036
292 1 1.8750 1.8750 -1.8750 0.000031 -0.000040 -0.000060 -0.6803 -0.5017 -0.0959
293 1 1.8750 1.8751 1.8750 0.000014 0.000264 -0.000075 -0.7655 -0.5960 -0.0077
294 1 1.8750 1.8750 5.6251 -0.000032 0.000046 0.000149 -0.7685 -0.5953 -0.0058
295 1 1.8750 1.8750 9.3750 -0.000028 -0.000049 0.000038 -0.7677 -0.5857 0.0117
296 1 1.8750 1.8750 13.1250 0.000039 0.000068 -0.000075 -0.6809 -0.5028 0.1002
297 1 1.8751 5.6250 -13.1251 0.000113 -0.000036 -0.000222 -1.1517 -0.5883 0.3943
298 1 1.8750 5.6250 -9.3750 -0.000062 -0.000080 -0.000035 -0.7918 -0.5951 -0.0006
299 1 1.8750 5.6250 -5.6249 -0.000014 0.000045 0.000119 -1.1439 -0.5995 -0.3892
300 1 1.8749 5.6250 -1.8750 -0.000105 0.000061 0.000022 6.0012 -0.5978 -0.3809
301 1 1.8750 5.6250 1.8751 0.000026 -0.000029 0.000142 5.6382 -0.5885 -0.0283
302 1 1.8750 5.6251 5.6250 -0.000029 0.000136 -0.000004 5.6301 -0.5974 0.0045
303 1 1.8750 5.6251 9.3751 0.000064 0.000102 0.000102 5.6372 -0.5996 0.0227
304 1 1.8749 5.6250 13.1251 -0.000209 0.000065 0.000114 6.0034 -0.5944 0.3795
305 1 1.8750 9.3751 -13.1250 0.000001 0.000161 0.000012 5.5557 -0.4640 0.1004
306 1 1.8750 9.3750 -9.3750 -0.000081 -0.000089 0.000039 5.6397 -0.5342 -0.0027
307 1 1.8750 9.3749 -5.6250 -0.000083 -0.000112 -0.000091 5.5574 -0.4503 -0.0961
308 1 1.8750 9.3750 -1.8750 -0.000010 0.000001 -0.000029 5.1972 -0.0932 -0.1008
309 1 1.8750 9.3750 1.8750 -0.000028 0.000049 -0.000056 5.1068 -0.0084 -0.0086
310 1 1.8750 9.3750 5.6250 -0.000052 0.000096 0.000095 5.0996 0.0015 -0.0053
311 1 1.8750 9.3750 9.3750 0.000055 0.000003 -0.000058 5.1069 -0.0038 0.0160
312 1 1.8750 9.3750 13.1250 0.000042 0.000083 0.000043 5.1949 -0.0961 0.0968
313 1 1.8750 13.1249 -13.1250 0.000065 -0.000186 0.000002 5.6417 0.5713 0.0030
314 1 1.8750 13.1250 -9.3751 0.000061 0.000021 -0.000124 5.6460 0.5453 0.0072
315 1 1.8750 13.1250 -5.6249 0.000061 -0.000021 0.000169 5.6419 0.5607 -0.0163
316 1 1.8750 13.1250 -1.8751 -0.000037 -0.000062 -0.000144 5.6370 0.5864 0.0006
317 1 1.8751 13.1250 1.8750 0.000134 -0.000016 -0.000090 5.6270 0.5957 0.0022
318 1 1.8749 13.1251 5.6250 -0.000126 0.000127 0.000096 5.6278 0.5919 -0.0041
319 1 1.8751 13.1250 9.3750 0.000213 0.000030 0.000053 5.6256 0.5937 -0.0002
320 1 1.8750 13.1250 13.1250 -0.000017 -0.000055 -0.000018 5.6337 0.5856 0.0073
321 1 5.6250 -13.1249 -13.1250 -0.000069 0.000110 0.000093 5.0537 -6.2961 -0.0048
322 1 5.6250 -13.1250 -9.3750 0.000004 -0.000066 -0.000009 5.0555 -6.2930 0.0022
323 1 5.6251 -13.1250 -5.6250 0.000128 0.000061 0.000014 5.0547 -6.2942 -0.0010
324 1 5.6250 -13.1250 -1.8750 0.000073 -0.000085 -0.000020 5.0537 -6.2931 0.0011
325 1 5.6251 -13.1250 1.8750 0.000121 0.000065 0.000012 5.0513 -6.2926 0.0005
326 1 5.6249 -13.1250 5.6250 -0.000097 -0.000102 0.000077 5.0547 -6.2904 -0.0051
327 1 5.6250 -13.1250 9.3749 -0.000022 0.000089 -0.000133 5.0560 -6.2942 0.0049
328 1 5.6250 -13.1250 13.1250 0.000036 0.000023 -0.000065 5.0593 -6.2941 0.0014
329 1 5.6251 -9.3750 -13.1250 0.000227 -0.000081 0.000087 5.0512 0.1102 0.0002
330 1 5.6250 -9.3750 -9.3750 0.000035 -0.000056 0.000055 5.0539 0.1054 0.0003
331 1 5.6249 -9.3750 -5.6250 -0.000136 -0.000024 0.000030 5.0579 0.1095 0.0016
332 1 5.6250 -9.3750 -1.8750 0.000023 -0.000072 0.000096 5.0521 0.1079 -0.0000
333 1 5.6249 -9.3750 1.8751 -0.000118 0.000060 0.000140 5.0557 0.1045 0.0001
334 1 5.6250 -9.3750 5.6251 0.000028 0.000055 0.000147 5.0572 0.1006 -0.0026
335 1 5.6250 -9.3750 9.3750 -0.000008 0.000001 -0.000021 5.0564 0.1056 0.0057
336 1 5.6251 -9.3750 13.1251 0.000141 -0.000038 0.000131 5.0546 0.1081 -0.0035
337 1 5.6250 -5.6250 -13.1250 0.000044 -0.000035 0.000055 5.0542 0.0010 0.0011
338 1 5.6250 -5.6250 -9.3750 0.000100 -0.000072 0.000067 5.0536 0.0020 0.0009
339 1 5.6250 -5.6250 -5.6249 0.000082 0.000071 0.000119 5.0535 -0.0023 -0.0034
340 1 5.6250 -5.6250 -1.8750 0.000063 0.000054 -0.000027 5.0536 -0.0044 0.0000
341 1 5.6251 -5.6250 1.8749 0.000114 -0.000041 -0.000162 5.0510 0.0026 0.0002
342 1 5.6251 -5.6250 5.6249 0.000209 -0.000089 -0.000248 5.0546 0.0030 0.0093
343 1 5.6250 -5.6251 9.3751 0.000089 -0.000105 0.000220 5.0543 0.0068 -0.0107
344 1 5.6250 -5.6250 13.1250 -0.000058 0.000008 0.000082 5.0586 -0.0011 0.0022
345 1 5.6250 -1.8750 -13.1250 0.000036 0.000067 -0.000096 5.0551 -0.0263 0.0158
346 1 5.6250 -1.8750 -9.3750 -0.000078 0.000036 0.000069 5.0569 -0.0001 -0.0031
347 1 5.6250 -1.8750 -5.6250 -0.000009 0.000028 0.000055 5.0535 -0.0257 -0.0138
348 1 5.6250 -1.8750 -1.8750 -0.000067 -0.000066 -0.000068 5.0572 -0.0776 -0.0068
349 1 5.6250 -1.8750 1.8750 -0.000018 0.000003 0.000093 5.0542 -0.1056 -0.0044
350 1 5.6249 -1.8750 5.6250 -0.000126 -0.000058 -0.000006 5.0551 -0.1074 0.0019
351 1 5.6250 -1.8749 9.3750 -0.000041 0.000176 -0.000006 5.0579 -0.1142 -0.0006
352 1 5.6250 -1.8750 13.1250 0.000000 -0.000018 -0.000021 5.0569 -0.0838 0.0108
353 1 5.6251 1.8750 -13.1250 0.000118 0.000037 0.000026 5.0546 -0.4791 0.3845
354 1 5.6250 1.8751 -9.3750 -0.000035 0.000135 0.000077 5.0567 -0.1350 -0.0027
355 1 5.6249 1.8749 -5.6250 -0.000235 -0.000114 -0.000027 5.0589 -0.4743 -0.3854
356 1 5.6250 1.8750 -1.8751 -0.000006 0.000064 -0.000126 5.0562 6.6641 -0.3798
357 1 5.6250 1.8750 1.8750 0.000060 0.000071 0.000083 5.0547 6.3037 -0.0259
358 1 5.6250 1.8750 5.6251 0.000066 -0.000085 0.000180 5.0539 6.2930 -0.0032
359 1 5.6250 1.8750 9.3750 -0.000043 -0.000028 0.000088 5.0554 6.3088 0.0227
360 1 5.6250 1.8749 13.1250 0.000055 -0.000125 -0.000088 5.0551 6.6676 0.3905
361 1 5.6250 5.6250 -13.1250 0.000075 0.000016 -0.000077 5.0559 6.2934 -7.0868
362 1 5.6251 5.6250 -9.3750 0.000227 -0.000064 -0.000040 5.0507 6.2964 -0.0013
363 1 5.6250 5.6250 -5.6250 0.000098 0.000045 -0.000064 5.0536 6.2900 7.0877
ITEM: TIMESTEP
10
ITEM: NUMBER OF ATOMS
363
ITEM: BOX BOUNDS pp pp pp
-15.000000 15.000000
-15.000000 15.000000
-15.000000 15.000000
ITEM: ATOMS id type xu yu zu vx vy vz fx fy fz
1 1 -13.1260 -13.1256 -13.1255 -0.000274 -0.000113 -0.000093 -5.0311 0.0353 0.0428
2 1 -13.1261 -13.1251 -9.3741 -0.000291 -0.000009 0.000160 -4.9830 0.0174 -0.0632
3 1 -13.1255 -13.1251 -5.6246 -0.000178 -0.000019 0.000069 -5.0440 -0.0150 -0.0200
4 1 -13.1249 -13.1256 -1.8758 -0.000060 -0.000105 -0.000137 -5.0340 0.0003 0.0535
5 1 -13.1254 -13.1251 1.8747 -0.000157 -0.000010 -0.000057 -5.0181 0.0020 0.0094
6 1 -13.1257 -13.1253 5.6254 -0.000215 -0.000046 0.000081 -5.0285 0.0029 -0.0596