ITEM: TIMESTEP
0
ITEM: NUMBER OF ATOMS
363
ITEM: BOX BOUNDS pp pp pp
-15.000000 15.000000
-15.000000 15.000000
-15.000000 15.000000
ITEM: ATOMS id type xu yu zu vx vy vz fx fy fz
1 1 -13.1251 -13.1252 -13.1250 -0.000103 -0.000082 0.000003 -5.0527 0.0172 -0.0053
2 1 -13.1252 -13.1253 -9.3750 -0.000117 -0.000165 -0.000001 -5.0570 0.0176 0.0082
3 1 -13.1250 -13.1250 -5.6248 -0.000048 0.000003 0.000100 -5.0660 0.0007 -0.0106
4 1 -13.1249 -13.1251 -1.8749 0.000025 -0.000075 0.000035 -5.0553 0.0045 0.0017
5 1 -13.1249 -13.1252 1.8750 0.000001 -0.000075 -0.000004 -5.0536 0.0132 0.0025
6 1 -13.1252 -13.1253 5.6250 -0.000114 -0.000137 0.000000 -5.0480 0.0190 -0.0034
7 1 -13.1251 -13.1249 9.3749 -0.000090 0.000031 -0.000029 -5.0431 -0.0038 -0.0019
8 1 -13.1249 -13.1251 13.1249 0.000024 -0.000069 -0.000064 -5.0638 -0.0046 0.0072
9 1 -13.1252 -9.3750 -13.1250 -0.000120 0.000017 -0.000007 -5.0517 -0.0038 -0.0003
10 1 -13.1250 -9.3749 -9.3751 -0.000036 0.000056 -0.000064 -5.0480 -0.0244 0.0063
11 1 -13.1254 -9.3752 -5.6251 -0.000224 -0.000089 -0.000032 -5.0508 0.0059 0.0015
12 1 -13.1252 -9.3750 -1.8749 -0.000116 -0.000000 0.000034 -5.0393 -0.0030 0.0017
13 1 -13.1252 -9.3750 1.8752 -0.000125 0.000019 0.000119 -5.0536 -0.0064 -0.0059
14 1 -13.1250 -9.3748 5.6252 -0.000034 0.000088 0.000105 -5.0582 -0.0298 0.0109
15 1 -13.1252 -9.3751 9.3754 -0.000130 -0.000054 0.000221 -5.0495 0.0128 -0.0174
16 1 -13.1253 -9.3753 13.1251 -0.000193 -0.000126 0.000056 -5.0486 0.0035 0.0088
17 1 -13.1253 -5.6249 -13.1249 -0.000176 0.000058 0.000062 -5.0389 -0.0133 -0.0245
18 1 -13.1253 -5.6251 -9.3752 -0.000176 -0.000074 -0.000102 -5.0407 0.0088 0.0121
19 1 -13.1249 -5.6252 -5.6252 0.000001 -0.000086 -0.000085 -5.0662 0.0194 0.0119
20 1 -13.1246 -5.6249 -1.8748 0.000156 0.000035 0.000105 -5.0602 0.0033 -0.0197
21 1 -13.1249 -5.6250 1.8750 0.000022 0.000024 0.000017 -5.0598 -0.0036 0.0033
22 1 -13.1250 -5.6252 5.6249 -0.000015 -0.000110 -0.000028 -5.0693 0.0223 0.0044
23 1 -13.1249 -5.6249 9.3750 0.000027 0.000035 -0.000005 -5.0551 -0.0206 -0.0110
24 1 -13.1248 -5.6252 13.1248 0.000047 -0.000113 -0.000116 -5.0574 0.0028 0.0188
25 1 -13.1250 -1.8752 -13.1248 -0.000014 -0.000092 0.000077 -5.0457 0.0139 -0.0028
26 1 -13.1250 -1.8752 -9.3749 -0.000055 -0.000078 0.000069 -5.0533 0.0127 -0.0104
27 1 -13.1251 -1.8746 -5.6252 -0.000074 0.000191 -0.000094 -5.0518 -0.0414 0.0361
28 1 -13.1254 -1.8748 -1.8745 -0.000209 0.000093 0.000246 -5.0531 -0.0031 -0.0452
29 1 -13.1249 -1.8751 1.8749 0.000041 -0.000030 -0.000073 -5.0591 -0.0037 0.0266
30 1 -13.1251 -1.8750 5.6250 -0.000105 0.000018 -0.000020 -5.0428 -0.0060 0.0027
31 1 -13.1254 -1.8753 9.3752 -0.000244 -0.000170 0.000079 -5.0439 0.0240 -0.0089
32 1 -13.1257 -1.8751 13.1251 -0.000370 -0.000042 0.000047 -5.0375 0.0139 0.0056
33 1 -13.1250 1.8749 -13.1247 -0.000026 -0.000047 0.000154 -5.0586 0.0052 -0.0264
34 1 -13.1251 1.8752 -9.3751 -0.000094 0.000119 -0.000027 -5.0510 -0.0163 0.0140
35 1 -13.1255 1.8747 -5.6250 -0.000287 -0.000127 -0.000018 -5.0319 0.0288 -0.0020
36 1 -13.1248 1.8752 -1.8751 0.000046 0.000089 -0.000046 -5.0588 -0.0047 -0.0064
37 1 -13.1247 1.8747 1.8747 0.000120 -0.000125 -0.000147 -5.0613 0.0059 0.0217
38 1 -13.1251 1.8751 5.6251 -0.000077 0.000056 0.000070 -5.0513 0.0046 -0.0165
39 1 -13.1253 1.8750 9.3751 -0.000161 -0.000020 0.000052 -5.0472 -0.0127 -0.0043
40 1 -13.1252 1.8754 13.1249 -0.000111 0.000217 -0.000032 -5.0524 -0.0363 0.0190
41 1 -13.1251 5.6252 -13.1248 -0.000083 0.000087 0.000103 -5.0488 -0.0181 -0.0215
42 1 -13.1250 5.6251 -9.3751 -0.000015 0.000069 -0.000069 -5.0517 0.0050 0.0118
43 1 -13.1251 5.6249 -5.6251 -0.000101 -0.000031 -0.000064 -5.0687 -0.0022 -0.0044
44 1 -13.1253 5.6250 -1.8752 -0.000204 -0.000010 -0.000102 -5.0427 0.0195 0.0067
45 1 -13.1252 5.6248 1.8749 -0.000153 -0.000109 -0.000048 -5.0524 0.0086 -0.0028
46 1 -13.1252 5.6253 5.6249 -0.000129 0.000131 -0.000039 -5.0466 -0.0052 -0.0011
47 1 -13.1253 5.6249 9.3749 -0.000165 -0.000026 -0.000032 -5.0560 0.0046 -0.0009
48 1 -13.1249 5.6249 13.1250 -0.000000 -0.000051 -0.000020 -5.0545 0.0202 0.0078
49 1 -13.1251 9.3749 -13.1250 -0.000073 -0.000038 -0.000002 -5.0434 0.0155 0.0071
50 1 -13.1252 9.3752 -9.3746 -0.000138 0.000084 0.000193 -5.0484 -0.0156 -0.0279
51 1 -13.1253 9.3751 -5.6251 -0.000205 0.000045 -0.000026 -5.0394 -0.0023 0.0042
52 1 -13.1252 9.3753 -1.8754 -0.000134 0.000154 -0.000187 -5.0411 -0.0277 0.0156
53 1 -13.1249 9.3751 1.8748 0.000007 0.000060 -0.000105 -5.0527 -0.0162 -0.0010
54 1 -13.1253 9.3752 5.6250 -0.000199 0.000102 -0.000024 -5.0381 -0.0104 -0.0046
55 1 -13.1248 9.3751 9.3750 0.000061 0.000039 -0.000003 -5.0466 -0.0043 -0.0090
56 1 -13.1252 9.3749 13.1248 -0.000153 -0.000032 -0.000099 -5.0401 -0.0039 0.0129
57 1 -13.1248 13.1251 -13.1248 0.000061 0.000057 0.000080 -5.0691 -0.0159 -0.0148
58 1 -13.1251 13.1248 -9.3750 -0.000095 -0.000118 -0.000005 -5.0561 0.0090 0.0035
59 1 -13.1253 13.1252 -5.6251 -0.000171 0.000094 -0.000028 -5.0321 -0.0084 0.0071
60 1 -13.1249 13.1248 -1.8749 0.000007 -0.000079 0.000054 -5.0546 0.0163 -0.0070
61 1 -13.1248 13.1250 1.8750 0.000087 0.000013 0.000021 -5.0613 -0.0019 0.0033
62 1 -13.1251 13.1248 5.6250 -0.000078 -0.000085 0.000025 -5.0454 0.0088 -0.0043
63 1 -13.1253 13.1251 9.3749 -0.000192 0.000042 -0.000025 -5.0384 0.0010 0.0022
64 1 -13.1251 13.1249 13.1249 -0.000073 -0.000060 -0.000046 -5.0562 0.0004 0.0112
65 1 -9.3750 -13.1248 -13.1252 -0.000023 0.000084 -0.000082 0.2031 -0.0030 0.0006
66 1 -9.3752 -13.1250 -9.3750 -0.000099 0.000009 0.000003 0.2149 -0.0064 -0.0086
67 1 -9.3754 -13.1248 -5.6251 -0.000176 0.000076 -0.000030 0.2233 -0.0127 0.0041
68 1 -9.3749 -13.1251 -1.8750 0.000044 -0.000047 0.000002 0.1880 0.0085 0.0001
69 1 -9.3749 -13.1250 1.8751 0.000050 0.000004 0.000027 0.1973 -0.0064 0.0010
70 1 -9.3749 -13.1251 5.6251 0.000032 -0.000053 0.000071 0.1878 0.0042 -0.0005
71 1 -9.3748 -13.1251 9.3752 0.000104 -0.000056 0.000102 0.1781 -0.0121 -0.0185
72 1 -9.3752 -13.1248 13.1247 -0.000089 0.000121 -0.000136 0.2298 -0.0163 0.0194
73 1 -9.3751 -9.3750 -13.1249 -0.000039 0.000016 0.000064 0.2053 0.0156 -0.0069
74 1 -9.3749 -9.3753 -9.3750 0.000068 -0.000126 -0.000009 0.1985 0.0101 0.0171
75 1 -9.3752 -9.3751 -5.6247 -0.000096 -0.000071 0.000131 0.1977 0.0080 -0.0297
76 1 -9.3747 -9.3748 -1.8753 0.000146 0.000098 -0.000162 0.1844 -0.0295 0.0371
77 1 -9.3751 -9.3750 1.8752 -0.000048 -0.000013 0.000096 0.1921 0.0045 -0.0211
78 1 -9.3751 -9.3751 5.6251 -0.000057 -0.000027 0.000052 0.2008 0.0028 0.0013
79 1 -9.3750 -9.3752 9.3750 -0.000007 -0.000082 0.000016 0.1947 0.0062 0.0023
80 1 -9.3751 -9.3750 13.1250 -0.000039 -0.000016 0.000019 0.1916 0.0013 0.0030
81 1 -9.3748 -5.6247 -13.1251 0.000103 0.000150 -0.000038 0.1770 -0.0226 0.0077
82 1 -9.3748 -5.6252 -9.3752 0.000083 -0.000100 -0.000077 0.1739 0.0218 0.0103
83 1 -9.3753 -5.6252 -5.6249 -0.000130 -0.000099 0.000043 0.2242 0.0099 -0.0167
84 1 -9.3749 -5.6254 -1.8751 0.000068 -0.000179 -0.000073 0.2144 0.0224 0.0144
85 1 -9.3750 -5.6249 1.8750 -0.000010 0.000036 0.000009 0.2060 -0.0134 -0.0119
86 1 -9.3754 -5.6249 5.6249 -0.000174 0.000033 -0.000054 0.2320 -0.0054 -0.0014
87 1 -9.3749 -5.6250 9.3748 0.000040 0.000001 -0.000114 0.2050 -0.0051 0.0198
88 1 -9.3750 -5.6253 13.1253 0.000005 -0.000143 0.000126 0.1970 0.0265 -0.0276
89 1 -9.3748 -1.8752 -13.1248 0.000116 -0.000075 0.000115 0.1937 0.0127 -0.0127
90 1 -9.3750 -1.8745 -9.3749 -0.000000 0.000246 0.000033 0.2039 -0.0351 0.0116
91 1 -9.3750 -1.8750 -5.6248 -0.000008 0.000015 0.000093 0.2066 -0.0199 -0.0138
92 1 -9.3752 -1.8752 -1.8751 -0.000091 -0.000112 -0.000063 0.2099 -0.0022 0.0225
93 1 -9.3750 -1.8752 1.8752 0.000001 -0.000120 0.000109 0.1935 0.0142 -0.0185
94 1 -9.3748 -1.8750 5.6250 0.000100 0.000012 0.000007 0.1944 -0.0054 0.0096
95 1 -9.3751 -1.8750 9.3751 -0.000035 0.000015 0.000036 0.2016 -0.0043 -0.0039
96 1 -9.3751 -1.8747 13.1250 -0.000028 0.000129 0.000007 0.1912 -0.0174 0.0094
97 1 -9.3751 1.8748 -13.1247 -0.000050 -0.000086 0.000141 0.2203 -0.0006 -0.0149
98 1 -9.3750 1.8751 -9.3750 -0.000005 0.000040 -0.000024 0.2031 0.0216 0.0084
99 1 -9.3748 1.8748 -5.6252 0.000113 -0.000119 -0.000077 0.1665 0.0187 0.0021
100 1 -9.3750 1.8749 -1.8751 -0.000008 -0.000046 -0.000070 0.2079 0.0062 0.0053
101 1 -9.3749 1.8749 1.8750 0.000041 -0.000063 0.000015 0.2101 0.0100 -0.0000
102 1 -9.3750 1.8748 5.6252 0.000012 -0.000085 0.000091 0.1941 0.0103 -0.0112
103 1 -9.3750 1.8749 9.3750 -0.000016 -0.000034 0.000002 0.1971 0.0022 0.0114
104 1 -9.3751 1.8753 13.1252 -0.000043 0.000132 0.000086 0.2011 -0.0039 -0.0013
105 1 -9.3749 5.6248 -13.1249 0.000049 -0.000077 0.000074 0.1820 0.0053 -0.0086
106 1 -9.3749 5.6252 -9.3752 0.000047 0.000114 -0.000087 0.1954 -0.0023 0.0286
107 1 -9.3755 5.6251 -5.6247 -0.000263 0.000031 0.000153 0.2255 -0.0183 -0.0346
108 1 -9.3750 5.6252 -1.8753 0.000023 0.000108 -0.000127 0.1839 -0.0186 0.0254
109 1 -9.3751 5.6253 1.8749 -0.000055 0.000140 -0.000048 0.2015 -0.0199 0.0036
110 1 -9.3750 5.6250 5.6252 0.000020 -0.000012 0.000091 0.1933 -0.0086 -0.0001
111 1 -9.3752 5.6249 9.3754 -0.000116 -0.000047 0.000209 0.2187 0.0033 -0.0123
112 1 -9.3750 5.6251 13.1252 0.000013 0.000041 0.000108 0.2021 0.0025 0.0066
113 1 -9.3748 9.3751 -13.1251 0.000121 0.000038 -0.000069 0.1844 -0.0045 0.0120
114 1 -9.3750 9.3753 -9.3750 -0.000002 0.000137 0.000021 0.1900 -0.0049 -0.0059
115 1 -9.3749 9.3749 -5.6249 0.000058 -0.000062 0.000032 0.1749 0.0118 -0.0063
116 1 -9.3748 9.3750 -1.8751 0.000097 -0.000004 -0.000044 0.1912 0.0027 0.0050
117 1 -9.3749 9.3751 1.8749 0.000051 0.000039 -0.000060 0.1988 -0.0006 0.0010
118 1 -9.3748 9.3749 5.6249 0.000106 -0.000036 -0.000050 0.1822 0.0025 0.0108
119 1 -9.3747 9.3750 9.3753 0.000160 -0.000007 0.000132 0.1840 -0.0148 -0.0197
120 1 -9.3748 9.3749 13.1251 0.000113 -0.000042 0.000029 0.1724 0.0084 0.0013
121 1 -9.3753 13.1252 -13.1247 -0.000124 0.000093 0.000131 0.2331 -0.0035 -0.0219
122 1 -9.3751 13.1251 -9.3750 -0.000074 0.000062 0.000012 0.2013 0.0024 0.0061
123 1 -9.3746 13.1251 -5.6251 0.000194 0.000032 -0.000027 0.1625 -0.0033 0.0017
124 1 -9.3749 13.1249 -1.8751 0.000039 -0.000075 -0.000039 0.1982 0.0065 0.0060
125 1 -9.3750 13.1248 1.8751 0.000017 -0.000080 0.000042 0.2092 0.0140 0.0043
126 1 -9.3748 13.1250 5.6254 0.000082 -0.000021 0.000184 0.1904 -0.0023 -0.0266
127 1 -9.3748 13.1247 9.3749 0.000101 -0.000171 -0.000072 0.1677 0.0172 0.0160
128 1 -9.3751 13.1250 13.1248 -0.000048 0.000002 -0.000083 0.2108 0.0066 0.0164
129 1 -5.6249 -13.1249 -13.1253 0.000048 0.000064 -0.000138 -0.0121 -0.0094 0.0196
130 1 -5.6248 -13.1249 -9.3750 0.000089 0.000069 0.000008 -0.0230 -0.0137 -0.0248
131 1 -5.6250 -13.1249 -5.6254 0.000013 0.000026 -0.000190 -0.0204 -0.0072 0.0232
132 1 -5.6253 -13.1254 -1.8750 -0.000144 -0.000182 -0.000023 0.0270 0.0332 -0.0022
133 1 -5.6250 -13.1252 1.8753 0.000009 -0.000095 0.000138 0.0076 0.0153 -0.0249
134 1 -5.6251 -13.1250 5.6249 -0.000030 0.000003 -0.000062 -0.0014 -0.0098 0.0320
135 1 -5.6251 -13.1250 9.3754 -0.000062 -0.000007 0.000194 0.0159 0.0145 -0.0292
136 1 -5.6246 -13.1249 13.1250 0.000178 0.000035 0.000010 -0.0238 -0.0183 0.0037
137 1 -5.6248 -9.3749 -13.1252 0.000083 0.000071 -0.000077 -0.0101 -0.0138 0.0040
138 1 -5.6248 -9.3752 -9.3753 0.000083 -0.000125 -0.000157 -0.0115 0.0256 0.0163
139 1 -5.6250 -9.3750 -5.6250 -0.000019 0.000021 0.000020 -0.0181 -0.0020 0.0015
140 1 -5.6248 -9.3747 -1.8746 0.000116 0.000136 0.000212 -0.0082 -0.0381 -0.0269
141 1 -5.6252 -9.3749 1.8749 -0.000104 0.000042 -0.000026 0.0152 -0.0226 0.0082
142 1 -5.6252 -9.3752 5.6247 -0.000108 -0.000120 -0.000129 0.0138 0.0196 0.0175
143 1 -5.6250 -9.3747 9.3751 0.000009 0.000136 0.000034 0.0136 -0.0180 -0.0098
144 1 -5.6251 -9.3751 13.1251 -0.000039 -0.000045 0.000062 -0.0062 0.0096 -0.0118
145 1 -5.6250 -5.6253 -13.1251 0.000012 -0.000141 -0.000073 0.0075 0.0335 0.0180
146 1 -5.6251 -5.6249 -9.3749 -0.000068 0.000053 0.000026 0.0182 -0.0232 -0.0091
147 1 -5.6249 -5.6250 -5.6250 0.000055 -0.000013 -0.000017 -0.0149 0.0141 -0.0037
148 1 -5.6248 -5.6252 -1.8752 0.000110 -0.000091 -0.000106 -0.0063 0.0258 0.0190
149 1 -5.6250 -5.6253 1.8752 -0.000005 -0.000130 0.000097 0.0036 0.0175 -0.0206
150 1 -5.6248 -5.6249 5.6250 0.000105 0.000054 0.000002 -0.0264 -0.0129 0.0108
151 1 -5.6249 -5.6250 9.3751 0.000059 -0.000009 0.000044 -0.0165 0.0110 0.0012
152 1 -5.6252 -5.6249 13.1252 -0.000120 0.000028 0.000087 0.0017 -0.0075 -0.0139
153 1 -5.6248 -1.8747 -13.1248 0.000091 0.000145 0.000109 -0.0106 -0.0277 -0.0259
154 1 -5.6248 -1.8752 -9.3753 0.000075 -0.000109 -0.000164 0.0035 0.0213 0.0285
155 1 -5.6248 -1.8747 -5.6250 0.000104 0.000152 -0.000017 -0.0232 -0.0087 0.0018
156 1 -5.6247 -1.8749 -1.8747 0.000148 0.000045 0.000155 -0.0282 -0.0130 -0.0110
157 1 -5.6253 -1.8751 1.8753 -0.000160 -0.000027 0.000132 0.0238 0.0007 -0.0112
158 1 -5.6247 -1.8749 5.6249 0.000149 0.000030 -0.000065 -0.0117 0.0123 0.0162
159 1 -5.6247 -1.8750 9.3749 0.000168 0.000001 -0.000036 -0.0349 -0.0042 -0.0003
160 1 -5.6247 -1.8750 13.1250 0.000159 -0.000018 0.000006 -0.0217 -0.0026 0.0041
161 1 -5.6247 1.8750 -13.1250 0.000173 0.000009 -0.000007 -0.0252 0.0102 -0.0043
162 1 -5.6248 1.8751 -9.3752 0.000093 0.000071 -0.000123 -0.0045 -0.0074 0.0171
163 1 -5.6250 1.8753 -5.6250 -0.000021 0.000162 0.000005 0.0091 -0.0058 -0.0070
164 1 -5.6250 1.8750 -1.8750 0.000013 -0.000007 0.000018 -0.0029 0.0084 -0.0015
165 1 -5.6249 1.8752 1.8750 0.000042 0.000082 0.000013 -0.0073 -0.0095 -0.0026
166 1 -5.6250 1.8753 5.6250 -0.000018 0.000164 -0.000020 0.0013 -0.0195 0.0058
167 1 -5.6249 1.8749 9.3751 0.000042 -0.000036 0.000035 -0.0141 0.0021 -0.0005
168 1 -5.6250 1.8748 13.1251 0.000001 -0.000083 0.000065 -0.0074 0.0061 -0.0072
169 1 -5.6252 5.6250 -13.1251 -0.000109 -0.000003 -0.000062 0.0122 0.0046 0.0028
170 1 -5.6250 5.6253 -9.3751 -0.000019 0.000140 -0.000051 0.0110 -0.0144 -0.0079
171 1 -5.6251 5.6251 -5.6253 -0.000050 0.000052 -0.000143 -0.0261 0.0067 0.0073
172 1 -5.6251 5.6251 -1.8752 -0.000028 0.000068 -0.000093 -0.0147 -0.0160 0.0082
173 1 -5.6249 5.6251 1.8752 0.000039 0.000050 0.000086 -0.0112 0.0012 -0.0144
174 1 -5.6250 5.6250 5.6251 0.000025 -0.000005 0.000045 -0.0035 0.0042 -0.0033
175 1 -5.6246 5.6250 9.3749 0.000180 -0.000018 -0.000044 -0.0356 0.0012 0.0059
176 1 -5.6250 5.6249 13.1250 0.000009 -0.000041 -0.000011 -0.0006 -0.0008 -0.0066
177 1 -5.6249 9.3751 -13.1250 0.000031 0.000052 0.000012 0.0174 -0.0135 -0.0167
178 1 -5.6251 9.3750 -9.3751 -0.000035 -0.000017 -0.000048 0.0043 0.0173 0.0093
179 1 -5.6251 9.3750 -5.6249 -0.000074 0.000016 0.000028 0.0092 -0.0029 -0.0027
180 1 -5.6247 9.3748 -1.8749 0.000152 -0.000076 0.000042 -0.0077 0.0140 -0.0008
181 1 -5.6249 9.3751 1.8751 0.000031 0.000029 0.000027 -0.0133 0.0001 -0.0023
182 1 -5.6248 9.3748 5.6250 0.000120 -0.000109 -0.000009 -0.0017 0.0136 0.0161
183 1 -5.6251 9.3750 9.3753 -0.000032 0.000013 0.000175 0.0126 0.0018 -0.0354
184 1 -5.6251 9.3750 13.1247 -0.000052 0.000003 -0.000158 0.0114 -0.0140 0.0346
185 1 -5.6247 13.1248 -13.1249 0.000129 -0.000083 0.000072 -0.0320 0.0190 -0.0236
186 1 -5.6251 13.1251 -9.3750 -0.000058 0.000071 0.000025 -0.0070 -0.0046 -0.0029
187 1 -5.6251 13.1249 -5.6251 -0.000046 -0.000071 -0.000070 0.0140 0.0121 0.0168
188 1 -5.6250 13.1250 -1.8749 0.000018 -0.000011 0.000073 0.0024 -0.0177 0.0019
189 1 -5.6249 13.1250 1.8755 0.000038 -0.000005 0.000227 -0.0031 -0.0040 -0.0225
190 1 -5.6249 13.1250 5.6251 0.000064 -0.000007 0.000040 -0.0049 -0.0071 0.0108
191 1 -5.6252 13.1251 9.3750 -0.000095 0.000053 -0.000006 0.0182 -0.0053 -0.0146
192 1 -5.6248 13.1247 13.1245 0.000092 -0.000138 -0.000228 -0.0120 0.0203 0.0348
193 1 -1.8751 -13.1251 -13.1249 -0.000036 -0.000034 0.000050 -0.0325 0.0246 0.0017
194 1 -1.8751 -13.1248 -9.3750 -0.000051 0.000112 0.000014 -0.0232 -0.0098 0.0064
195 1 -1.8752 -13.1250 -5.6249 -0.000080 0.000012 0.000063 -0.0367 0.0239 -0.0039
196 1 -1.8748 -13.1248 -1.8749 0.000076 0.000078 0.000040 -0.0739 0.0179 -0.0003
197 1 -1.8749 -13.1247 1.8750 0.000056 0.000126 0.000009 -0.0547 0.0146 0.0115
198 1 -1.8752 -13.1249 5.6253 -0.000109 0.000044 0.000143 -0.0410 0.0145 -0.0271
199 1 -1.8750 -13.1249 9.3747 0.000008 0.000042 -0.000136 -0.0675 0.0201 0.0335
200 1 -1.8748 -13.1253 13.1251 0.000082 -0.000126 0.000071 -0.0454 0.0556 -0.0160
201 1 -1.8749 -9.3752 -13.1253 0.000052 -0.000113 -0.000165 -0.0060 0.0121 0.0259
202 1 -1.8751 -9.3752 -9.3751 -0.000073 -0.000087 -0.000053 0.0160 0.0174 -0.0002
203 1 -1.8753 -9.3748 -5.6249 -0.000165 0.000125 0.000070 0.0154 0.0015 -0.0139
204 1 -1.8751 -9.3750 -1.8750 -0.000059 -0.000012 -0.000009 0.0195 0.0114 0.0077
205 1 -1.8749 -9.3748 1.8750 0.000073 0.000079 0.000020 -0.0160 0.0095 -0.0104
206 1 -1.8749 -9.3752 5.6248 0.000053 -0.000117 -0.000097 -0.0174 0.0167 0.0051
207 1 -1.8746 -9.3750 9.3748 0.000200 0.000017 -0.000110 -0.0196 0.0056 0.0138
208 1 -1.8752 -9.3748 13.1252 -0.000102 0.000109 0.000100 0.0065 -0.0227 -0.0334
209 1 -1.8750 -5.6250 -13.1251 0.000021 0.000006 -0.000057 -0.0099 -0.0093 0.0093
210 1 -1.8749 -5.6251 -9.3748 0.000056 -0.000026 0.000085 0.0009 -0.0044 -0.0133
211 1 -1.8749 -5.6245 -5.6250 0.000028 0.000226 0.000018 0.0020 -0.0165 -0.0031
212 1 -1.8749 -5.6248 -1.8752 0.000057 0.000078 -0.000105 -0.0055 -0.0150 0.0100
213 1 -1.8749 -5.6247 1.8749 0.000048 0.000131 -0.000075 -0.0113 -0.0208 0.0067
214 1 -1.8750 -5.6250 5.6252 0.000011 -0.000025 0.000081 0.0047 -0.0044 -0.0057
215 1 -1.8753 -5.6249 9.3753 -0.000156 0.000063 0.000126 0.0312 0.0001 -0.0161
216 1 -1.8754 -5.6250 13.1248 -0.000188 0.000005 -0.000079 0.0208 0.0013 0.0153
217 1 -1.8752 -1.8750 -13.1251 -0.000078 -0.000010 -0.000060 0.0237 -0.0082 0.0006
218 1 -1.8746 -1.8750 -9.3751 0.000190 -0.000010 -0.000071 -0.0250 -0.0074 -0.0036
219 1 -1.8752 -1.8749 -5.6252 -0.000110 0.000053 -0.000116 0.0293 0.0152 0.0063
220 1 -1.8751 -1.8751 -1.8751 -0.000026 -0.000033 -0.000048 0.0175 0.0142 0.0015
221 1 -1.8749 -1.8753 1.8751 0.000058 -0.000132 0.000068 -0.0212 0.0286 -0.0245
222 1 -1.8750 -1.8749 5.6247 0.000009 0.000031 -0.000158 0.0078 -0.0031 0.0269
223 1 -1.8752 -1.8748 9.3751 -0.000120 0.000088 0.000033 0.0307 0.0137 -0.0179
224 1 -1.8750 -1.8752 13.1249 0.000014 -0.000085 -0.000025 0.0063 0.0078 0.0017
225 1 -1.8750 1.8747 -13.1250 0.000018 -0.000132 0.000014 0.0050 0.0152 0.0107
226 1 -1.8748 1.8748 -9.3751 0.000121 -0.000112 -0.000074 -0.0174 0.0043 0.0046
227 1 -1.8750 1.8752 -5.6252 -0.000022 0.000082 -0.000088 -0.0065 -0.0319 0.0093
228 1 -1.8750 1.8751 -1.8748 -0.000005 0.000061 0.000121 -0.0380 -0.0243 -0.0302
229 1 -1.8752 1.8750 1.8749 -0.000075 0.000022 -0.000035 -0.0391 -0.0398 0.0168
230 1 -1.8750 1.8751 5.6251 -0.000014 0.000034 0.000038 -0.0505 -0.0202 -0.0191
231 1 -1.8752 1.8755 9.3747 -0.000086 0.000268 -0.000160 -0.0431 -0.0507 0.0351
232 1 -1.8751 1.8749 13.1253 -0.000033 -0.000046 0.000160 -0.0274 -0.0118 -0.0257
233 1 -1.8751 5.6251 -13.1248 -0.000060 0.000059 0.000105 -0.0784 -0.0444 0.0024
234 1 -1.8749 5.6247 -9.3748 0.000060 -0.000131 0.000077 -0.0622 -0.0155 -0.0008
235 1 -1.8754 5.6245 -5.6250 -0.000186 -0.000258 0.000021 -0.0412 0.0184 -0.0090
236 1 -1.8755 5.6251 -1.8751 -0.000265 0.000052 -0.000029 -0.1006 -0.0323 -0.0111
237 1 -1.8751 5.6249 1.8749 -0.000029 -0.000033 -0.000067 -0.1371 -0.0181 0.0083
238 1 -1.8750 5.6252 5.6251 -0.000011 0.000101 0.000027 -0.1370 -0.0404 -0.0005
239 1 -1.8751 5.6250 9.3752 -0.000050 0.000010 0.000104 -0.1321 -0.0074 -0.0133
240 1 -1.8750 5.6252 13.1250 -0.000003 0.000091 -0.000022 -0.1268 -0.0376 0.0293
241 1 -1.8747 9.3749 -13.1249 0.000163 -0.000035 0.000032 -0.1868 -0.0037 0.0104
242 1 -1.8750 9.3750 -9.3749 -0.000008 -0.000013 0.000025 -0.1563 -0.0446 -0.0117
243 1 -1.8751 9.3751 -5.6253 -0.000063 0.000030 -0.000137 -0.1669 -0.0472 0.0074
244 1 -1.8749 9.3748 -1.8752 0.000063 -0.000092 -0.000081 -0.1820 0.0159 -0.0018
245 1 -1.8753 9.3750 1.8751 -0.000156 0.000009 0.000048 -0.1697 -0.0018 -0.0190
246 1 -1.8748 9.3748 5.6248 0.000085 -0.000078 -0.000089 -0.1941 0.0231 0.0212
247 1 -1.8751 9.3749 9.3752 -0.000035 -0.000025 0.000077 -0.1958 0.0034 -0.0109
248 1 -1.8751 9.3750 13.1252 -0.000043 0.000019 0.000087 -0.1950 0.0060 0.0027
249 1 -1.8752 13.1251 -13.1253 -0.000077 0.000073 -0.000171 -0.1291 0.0096 0.0322
250 1 -1.8752 13.1247 -9.3748 -0.000112 -0.000165 0.000087 -0.1387 0.0518 -0.0214
251 1 -1.8752 13.1248 -5.6249 -0.000092 -0.000092 0.000039 -0.1387 0.0391 0.0083
252 1 -1.8749 13.1252 -1.8748 0.000030 0.000076 0.000083 -0.1435 0.0128 0.0028
253 1 -1.8750 13.1250 1.8753 0.000015 0.000020 0.000144 -0.1535 0.0309 -0.0174
254 1 -1.8751 13.1251 5.6249 -0.000032 0.000068 -0.000055 -0.1317 0.0125 0.0227
255 1 -1.8750 13.1250 9.3751 -0.000014 0.000006 0.000070 -0.1588 0.0237 -0.0082
256 1 -1.8749 13.1252 13.1251 0.000050 0.000096 0.000058 -0.1459 0.0033 -0.0143
257 1 1.8752 -13.1247 -13.1252 0.000089 0.000164 -0.000076 -0.7768 0.5732 0.0099
258 1 1.8753 -13.1249 -9.3750 0.000133 0.000073 -0.000009 -0.7796 0.5967 -0.0030
259 1 1.8750 -13.1250 -5.6249 -0.000025 -0.000004 0.000026 -0.7773 0.6029 -0.0016
260 1 1.8748 -13.1246 -1.8749 -0.000089 0.000179 0.000031 -0.7471 0.5871 0.0002
261 1 1.8750 -13.1250 1.8750 -0.000012 -0.000013 0.000020 -0.7643 0.5831 -0.0016
262 1 1.8749 -13.1254 5.6250 -0.000078 -0.000203 -0.000022 -0.7778 0.6163 -0.0078
263 1 1.8746 -13.1250 9.3747 -0.000193 0.000020 -0.000154 -0.7420 0.5804 0.0189
264 1 1.8750 -13.1253 13.1250 -0.000015 -0.000126 0.000009 -0.7723 0.6210 -0.0184
265 1 1.8748 -9.3750 -13.1253 -0.000082 -0.000001 -0.000165 -0.2116 0.0552 0.0278
266 1 1.8750 -9.3747 -9.3749 0.000001 0.000127 0.000037 -0.2217 0.0290 -0.0203
267 1 1.8749 -9.3748 -5.6251 -0.000073 0.000077 -0.000045 -0.2213 0.0396 0.0002
268 1 1.8751 -9.3748 -1.8752 0.000042 0.000108 -0.000104 -0.2416 0.0493 0.0145
269 1 1.8750 -9.3752 1.8751 0.000023 -0.000099 0.000055 -0.2288 0.0672 -0.0098
270 1 1.8750 -9.3752 5.6252 -0.000026 -0.000098 0.000084 -0.2165 0.0552 0.0039
271 1 1.8751 -9.3753 9.3753 0.000061 -0.000153 0.000132 -0.2240 0.0667 -0.0075
272 1 1.8749 -9.3749 13.1251 -0.000045 0.000062 0.000033 -0.2288 0.0218 -0.0064
273 1 1.8748 -5.6251 -13.1253 -0.000115 -0.000055 -0.000154 -0.1846 0.0134 0.0139
274 1 1.8754 -5.6252 -9.3750 0.000185 -0.000094 0.000006 -0.2146 0.0074 -0.0142
275 1 1.8750 -5.6249 -5.6251 0.000011 0.000046 -0.000025 -0.2059 0.0008 0.0052
276 1 1.8748 -5.6249 -1.8750 -0.000083 0.000044 0.000014 -0.1829 0.0054 0.0053
277 1 1.8749 -5.6248 1.8752 -0.000055 0.000117 0.000116 -0.2057 -0.0258 -0.0192
278 1 1.8749 -5.6248 5.6249 -0.000026 0.000120 -0.000064 -0.1924 -0.0284 0.0209
279 1 1.8752 -5.6251 9.3752 0.000085 -0.000027 0.000081 -0.2243 -0.0140 -0.0231
280 1 1.8751 -5.6252 13.1248 0.000059 -0.000110 -0.000096 -0.2187 0.0129 0.0081
281 1 1.8752 -1.8749 -13.1252 0.000111 0.000073 -0.000084 -0.2231 -0.0230 0.0153
282 1 1.8748 -1.8754 -9.3748 -0.000077 -0.000194 0.000111 -0.1567 0.0122 -0.0172
283 1 1.8752 -1.8750 -5.6249 0.000103 0.000019 0.000039 -0.2238 -0.0145 0.0055
284 1 1.8751 -1.8749 -1.8748 0.000037 0.000054 0.000095 -0.2150 -0.0442 -0.0105
285 1 1.8749 -1.8751 1.8751 -0.000030 -0.000028 0.000056 -0.2131 -0.0320 0.0127
286 1 1.8749 -1.8752 5.6253 -0.000032 -0.000079 0.000173 -0.2206 -0.0296 -0.0113
287 1 1.8750 -1.8751 9.3752 0.000022 -0.000075 0.000086 -0.2330 -0.0425 -0.0100
288 1 1.8749 -1.8752 13.1247 -0.000071 -0.000084 -0.000155 -0.2067 -0.0330 0.0272
289 1 1.8752 1.8750 -13.1250 0.000085 0.000006 -0.000017 -0.3247 -0.1192 0.1002
290 1 1.8748 1.8749 -9.3749 -0.000102 -0.000074 0.000052 -0.2019 -0.0679 -0.0108
291 1 1.8751 1.8749 -5.6251 0.000041 -0.000058 -0.000026 -0.3220 -0.1326 -0.0957
292 1 1.8749 1.8749 -1.8751 -0.000075 -0.000065 -0.000063 -0.6625 -0.4818 -0.1026
293 1 1.8749 1.8751 1.8748 -0.000064 0.000033 -0.000122 -0.7633 -0.5945 0.0110
294 1 1.8749 1.8750 5.6253 -0.000057 -0.000023 0.000155 -0.7582 -0.5961 -0.0395
295 1 1.8747 1.8749 9.3747 -0.000151 -0.000044 -0.000130 -0.7427 -0.6000 0.0344
296 1 1.8751 1.8750 13.1249 0.000051 -0.000005 -0.000066 -0.6776 -0.5030 0.0970
297 1 1.8749 5.6254 -13.1250 -0.000081 0.000220 0.000015 -1.1371 -0.6245 0.3975
298 1 1.8748 5.6249 -9.3746 -0.000086 -0.000068 0.000213 -0.7638 -0.5827 -0.0376
299 1 1.8752 5.6250 -5.6253 0.000109 -0.000017 -0.000141 -1.1717 -0.6006 -0.3559
300 1 1.8749 5.6252 -1.8751 -0.000019 0.000106 -0.000066 5.9826 -0.6229 -0.3897
301 1 1.8752 5.6250 1.8749 0.000140 0.000020 -0.000051 5.6300 -0.5925 -0.0192
302 1 1.8754 5.6251 5.6250 0.000221 0.000031 0.000024 5.6146 -0.5977 0.0016
303 1 1.8750 5.6247 9.3752 0.000050 -0.000129 0.000120 5.6337 -0.5652 0.0087
304 1 1.8750 5.6251 13.1250 0.000047 0.000058 -0.000018 5.9995 -0.6055 0.3979
305 1 1.8749 9.3750 -13.1251 -0.000018 -0.000010 -0.000071 5.5727 -0.4387 0.1174
306 1 1.8750 9.3753 -9.3750 0.000019 0.000122 0.000011 5.6393 -0.5552 -0.0079
307 1 1.8749 9.3749 -5.6250 -0.000037 -0.000047 -0.000001 5.5560 -0.4479 -0.1063
308 1 1.8751 9.3748 -1.8753 0.000065 -0.000113 -0.000128 5.1985 -0.0625 -0.0847
309 1 1.8753 9.3751 1.8749 0.000159 0.000046 -0.000047 5.0888 -0.0161 -0.0221
310 1 1.8752 9.3751 5.6248 0.000140 0.000049 -0.000104 5.1008 -0.0032 0.0023
311 1 1.8751 9.3755 9.3748 0.000073 0.000226 -0.000115 5.1036 -0.0484 0.0268
312 1 1.8748 9.3750 13.1252 -0.000057 -0.000021 0.000110 5.1974 -0.0827 0.0709
313 1 1.8751 13.1250 -13.1251 0.000102 -0.000016 -0.000059 5.6342 0.5725 0.0100
314 1 1.8751 13.1251 -9.3750 0.000086 0.000032 0.000022 5.6384 0.5587 -0.0130
315 1 1.8751 13.1250 -5.6251 0.000107 0.000028 -0.000074 5.6334 0.5520 0.0038
316 1 1.8753 13.1252 -1.8750 0.000208 0.000098 -0.000022 5.6251 0.5755 -0.0115
317 1 1.8750 13.1248 1.8749 0.000019 -0.000078 -0.000042 5.6269 0.6078 -0.0012
318 1 1.8753 13.1250 5.6249 0.000206 0.000022 -0.000071 5.6147 0.5813 0.0063
319 1 1.8750 13.1249 9.3750 0.000034 -0.000036 -0.000012 5.6254 0.6184 -0.0092
320 1 1.8752 13.1251 13.1248 0.000127 0.000061 -0.000084 5.6310 0.5645 0.0112
321 1 5.6253 -13.1250 -13.1249 0.000174 -0.000024 0.000035 5.0532 -6.2936 0.0014
322 1 5.6254 -13.1250 -9.3749 0.000227 -0.000048 0.000057 5.0528 -6.2892 0.0006
323 1 5.6249 -13.1252 -5.6248 0.000002 -0.000163 0.000077 5.0540 -6.2978 -0.0123
324 1 5.6252 -13.1251 -1.8751 0.000147 -0.000079 -0.000067 5.0422 -6.2840 0.0094
325 1 5.6251 -13.1249 1.8748 0.000057 0.000021 -0.000078 5.0533 -6.2962 0.0091
326 1 5.6248 -13.1252 5.6251 -0.000064 -0.000117 0.000050 5.0550 -6.2902 -0.0118
327 1 5.6251 -13.1253 9.3750 0.000093 -0.000201 0.000010 5.0386 -6.2848 0.0050
328 1 5.6248 -13.1251 13.1251 -0.000074 -0.000110 0.000028 5.0602 -6.2879 -0.0002
329 1 5.6250 -9.3750 -13.1248 0.000007 0.000007 0.000091 5.0497 0.0975 -0.0175
330 1 5.6252 -9.3749 -9.3750 0.000151 0.000040 -0.000020 5.0472 0.1000 0.0213
331 1 5.6252 -9.3753 -5.6247 0.000108 -0.000171 0.000159 5.0458 0.1114 -0.0319
332 1 5.6248 -9.3748 -1.8753 -0.000078 0.000093 -0.000130 5.0642 0.0891 0.0400
333 1 5.6248 -9.3750 1.8753 -0.000061 -0.000002 0.000138 5.0637 0.1147 -0.0295
334 1 5.6250 -9.3751 5.6250 0.000040 -0.000046 -0.000017 5.0540 0.1014 0.0110
335 1 5.6248 -9.3751 9.3750 -0.000067 -0.000033 -0.000009 5.0653 0.1060 -0.0038
336 1 5.6249 -9.3750 13.1249 -0.000001 -0.000004 -0.000050 5.0544 0.1026 0.0129
337 1 5.6250 -5.6252 -13.1246 0.000039 -0.000114 0.000185 5.0458 0.0077 -0.0390
338 1 5.6251 -5.6250 -9.3753 0.000102 -0.000006 -0.000132 5.0636 0.0101 0.0197
339 1 5.6249 -5.6252 -5.6253 -0.000036 -0.000099 -0.000160 5.0589 -0.0025 0.0133
340 1 5.6251 -5.6250 -1.8749 0.000072 -0.000019 0.000025 5.0478 0.0102 -0.0107
341 1 5.6246 -5.6249 1.8751 -0.000184 0.000050 0.000055 5.0635 -0.0128 -0.0025
342 1 5.6251 -5.6252 5.6251 0.000080 -0.000075 0.000050 5.0514 0.0054 -0.0130
343 1 5.6250 -5.6248 9.3747 0.000024 0.000089 -0.000148 5.0619 -0.0150 0.0177
344 1 5.6251 -5.6250 13.1248 0.000076 0.000018 -0.000077 5.0569 -0.0027 0.0139
345 1 5.6251 -1.8752 -13.1254 0.000079 -0.000111 -0.000201 5.0597 -0.0083 0.0320
346 1 5.6256 -1.8749 -9.3750 0.000321 0.000069 -0.000021 5.0316 -0.0069 -0.0199
347 1 5.6251 -1.8751 -5.6252 0.000096 -0.000039 -0.000106 5.0576 -0.0220 0.0016
348 1 5.6253 -1.8750 -1.8750 0.000169 0.000010 0.000002 5.0492 -0.0836 -0.0239
349 1 5.6251 -1.8752 1.8749 0.000071 -0.000081 -0.000043 5.0512 -0.0822 -0.0040
350 1 5.6250 -1.8750 5.6247 0.000015 -0.000006 -0.000126 5.0529 -0.1057 0.0166
351 1 5.6251 -1.8750 9.3751 0.000064 -0.000014 0.000048 5.0544 -0.0939 -0.0206
352 1 5.6251 -1.8750 13.1249 0.000066 -0.000009 -0.000065 5.0469 -0.0779 0.0103
353 1 5.6251 1.8753 -13.1248 0.000076 0.000132 0.000078 5.0580 -0.4965 0.3750
354 1 5.6253 1.8750 -9.3749 0.000196 0.000021 0.000047 5.0361 -0.1357 -0.0074
355 1 5.6251 1.8751 -5.6252 0.000073 0.000057 -0.000094 5.0547 -0.4817 -0.3684
356 1 5.6252 1.8750 -1.8750 0.000128 0.000051 0.000002 5.0434 6.6656 -0.3920
357 1 5.6250 1.8752 1.8750 0.000040 0.000163 0.000006 5.0496 6.2908 -0.0272
358 1 5.6252 1.8751 5.6249 0.000137 0.000104 -0.000044 5.0445 6.2881 0.0132
359 1 5.6253 1.8751 9.3752 0.000179 0.000085 0.000088 5.0342 6.3009 0.0044
360 1 5.6253 1.8750 13.1249 0.000169 0.000049 -0.000059 5.0502 6.6641 0.4065
361 1 5.6251 5.6252 -13.1250 0.000073 0.000163 -0.000023 5.0463 6.2942 -7.0870
362 1 5.6255 5.6248 -9.3749 0.000259 -0.000066 0.000030 5.0346 6.2999 -0.0098
363 1 5.6250 5.6252 -5.6252 0.000055 0.000149 -0.000042 5.0612 6.2905 7.0960
ITEM: TIMESTEP
10
ITEM: NUMBER OF ATOMS
363
ITEM: BOX BOUNDS pp pp pp
-15.000000 15.000000
-15.000000 15.000000
-15.000000 15.000000
ITEM: ATOMS id type xu yu zu vx vy vz fx fy fz
1 1 -13.1335 -13.1268 -13.1249 -0.000726 -0.000076 0.000001 -4.7768 0.1844 -0.0555
2 1 -13.1338 -13.1286 -9.3750 -0.000741 -0.000158 0.000002 -4.8203 0.1879 0.0871
3 1 -13.1323 -13.1249 -5.6228 -0.000676 0.000003 0.000096 -4.9152 0.0073 -0.1137
4 1 -13.1307 -13.1266 -1.8742 -0.000599 -0.000073 0.000036 -4.8053 0.0502 0.0172
5 1 -13.1312 -13.1266 1.8749 -0.000622 -0.000070 -0.000003 -4.7864 0.1426 0.0269
6 1 -13.1337 -13.1280 5.6250 -0.000735 -0.000129 -0.000001 -4.7288 0.2017 -0.0364