ITEM: TIMESTEP
0
ITEM: NUMBER OF ATOMS
363
ITEM: BOX BOUNDS pp pp pp
-15.000000 15.000000
-15.000000 15.000000
-15.000000 15.000000
ITEM: ATOMS id type xu yu zu vx vy vz fx fy fz
1 1 -13.1250 -13.1250 -13.1250 -0.000077 -0.000051 -0.000016 -5.0545 -0.0014 -0.0023
2 1 -13.1250 -13.1250 -9.3750 -0.000023 -0.000045 -0.000097 -5.0546 -0.0013 0.0036
3 1 -13.1250 -13.1251 -5.6250 -0.000030 -0.000125 0.000032 -5.0536 0.0020 0.0000
4 1 -13.1250 -13.1250 -1.8749 -0.000026 0.000044 0.000161 -5.0528 -0.0003 -0.0045
5 1 -13.1249 -13.1250 1.8750 0.000128 -0.000001 0.000010 -5.0576 -0.0009 0.0048
6 1 -13.1250 -13.1250 5.6251 0.000043 -0.000027 0.000108 -5.0603 0.0042 -0.0019
7 1 -13.1249 -13.1251 9.3750 0.000129 -0.000170 0.000072 -5.0525 0.0057 -0.0012
8 1 -13.1250 -13.1249 13.1250 -0.000029 0.000122 -0.000049 -5.0571 -0.0028 0.0031
9 1 -13.1250 -9.3750 -13.1249 0.000051 -0.000027 0.000121 -5.0551 -0.0003 -0.0066
10 1 -13.1250 -9.3750 -9.3750 -0.000046 -0.000096 0.000059 -5.0548 0.0055 -0.0002
11 1 -13.1250 -9.3751 -5.6250 0.000011 -0.000153 -0.000019 -5.0544 0.0066 0.0020
12 1 -13.1251 -9.3750 -1.8750 -0.000132 -0.000025 0.000011 -5.0549 -0.0006 -0.0003
13 1 -13.1250 -9.3750 1.8750 -0.000074 0.000078 0.000027 -5.0538 -0.0026 0.0005
14 1 -13.1250 -9.3749 5.6250 0.000015 0.000120 0.000063 -5.0565 -0.0052 -0.0026
15 1 -13.1250 -9.3750 9.3750 -0.000018 0.000028 -0.000046 -5.0583 -0.0074 -0.0010
16 1 -13.1250 -9.3750 13.1249 0.000005 0.000030 -0.000192 -5.0542 0.0011 0.0078
17 1 -13.1249 -5.6250 -13.1250 0.000231 -0.000021 0.000017 -5.0597 0.0006 0.0002
18 1 -13.1250 -5.6249 -9.3749 0.000015 0.000156 0.000107 -5.0549 -0.0094 -0.0035
19 1 -13.1250 -5.6249 -5.6250 -0.000081 0.000195 -0.000002 -5.0511 -0.0075 0.0016
20 1 -13.1249 -5.6251 -1.8750 0.000099 -0.000123 -0.000018 -5.0574 0.0011 0.0017
21 1 -13.1250 -5.6250 1.8750 0.000009 0.000006 0.000063 -5.0529 0.0035 0.0004
22 1 -13.1249 -5.6250 5.6251 0.000116 -0.000029 0.000155 -5.0561 0.0046 -0.0019
23 1 -13.1251 -5.6251 9.3751 -0.000113 -0.000167 0.000123 -5.0500 0.0029 -0.0024
24 1 -13.1251 -5.6250 13.1250 -0.000262 -0.000014 -0.000059 -5.0514 0.0042 0.0047
25 1 -13.1250 -1.8750 -13.1250 0.000024 0.000025 -0.000020 -5.0541 -0.0017 0.0018
26 1 -13.1249 -1.8751 -9.3750 0.000142 -0.000119 0.000076 -5.0589 0.0056 -0.0010
27 1 -13.1250 -1.8750 -5.6249 -0.000077 0.000097 0.000106 -5.0550 -0.0008 -0.0028
28 1 -13.1250 -1.8751 -1.8750 0.000035 -0.000122 -0.000039 -5.0554 -0.0010 0.0038
29 1 -13.1250 -1.8749 1.8750 0.000083 0.000120 0.000044 -5.0546 -0.0032 -0.0003
30 1 -13.1250 -1.8750 5.6251 0.000080 0.000069 0.000114 -5.0552 -0.0006 -0.0015
31 1 -13.1251 -1.8751 9.3750 -0.000122 -0.000180 0.000069 -5.0548 0.0028 -0.0005
32 1 -13.1250 -1.8749 13.1250 -0.000075 0.000159 -0.000019 -5.0568 -0.0042 0.0016
33 1 -13.1250 1.8750 -13.1250 0.000070 -0.000028 -0.000016 -5.0572 0.0011 0.0011
34 1 -13.1249 1.8750 -9.3750 0.000110 -0.000064 -0.000015 -5.0565 0.0007 -0.0023
35 1 -13.1250 1.8750 -5.6251 -0.000017 -0.000076 -0.000136 -5.0576 0.0021 0.0046
36 1 -13.1249 1.8749 -1.8750 0.000158 -0.000138 0.000014 -5.0594 0.0029 -0.0023
37 1 -13.1250 1.8750 1.8750 -0.000023 0.000020 0.000040 -5.0546 0.0014 -0.0056
38 1 -13.1250 1.8751 5.6249 -0.000010 0.000120 -0.000245 -5.0552 -0.0006 0.0069
39 1 -13.1251 1.8750 9.3750 -0.000118 0.000003 -0.000093 -5.0534 -0.0038 -0.0008
40 1 -13.1250 1.8750 13.1250 -0.000089 0.000069 0.000040 -5.0543 0.0002 -0.0033
41 1 -13.1250 5.6250 -13.1251 -0.000059 -0.000016 -0.000120 -5.0588 0.0013 0.0040
42 1 -13.1250 5.6250 -9.3750 0.000084 0.000031 -0.000100 -5.0537 -0.0024 -0.0019
43 1 -13.1251 5.6249 -5.6251 -0.000109 -0.000136 -0.000152 -5.0568 0.0019 0.0043
44 1 -13.1250 5.6250 -1.8750 -0.000038 0.000024 0.000049 -5.0576 -0.0034 -0.0048
45 1 -13.1250 5.6250 1.8750 0.000049 -0.000016 -0.000024 -5.0579 0.0024 0.0046
46 1 -13.1250 5.6251 5.6251 0.000072 0.000111 0.000168 -5.0547 -0.0020 -0.0066
47 1 -13.1251 5.6250 9.3750 -0.000108 -0.000010 -0.000037 -5.0531 0.0016 0.0065
48 1 -13.1250 5.6250 13.1251 -0.000074 -0.000026 0.000104 -5.0527 0.0024 -0.0065
49 1 -13.1250 9.3750 -13.1250 0.000004 0.000075 0.000051 -5.0550 -0.0053 0.0009
50 1 -13.1250 9.3750 -9.3749 0.000024 -0.000015 0.000112 -5.0559 -0.0002 -0.0009
51 1 -13.1250 9.3750 -5.6250 -0.000030 -0.000072 0.000089 -5.0553 0.0007 -0.0010
52 1 -13.1249 9.3750 -1.8750 0.000142 -0.000007 -0.000016 -5.0604 0.0022 0.0013
53 1 -13.1250 9.3750 1.8750 -0.000065 0.000094 -0.000038 -5.0574 -0.0057 0.0033
54 1 -13.1250 9.3750 5.6251 0.000063 -0.000032 0.000126 -5.0571 0.0039 -0.0078
55 1 -13.1250 9.3750 9.3749 0.000039 0.000066 -0.000152 -5.0522 -0.0029 0.0080
56 1 -13.1250 9.3750 13.1250 -0.000034 0.000006 0.000028 -5.0569 -0.0003 -0.0028
57 1 -13.1250 13.1249 -13.1250 0.000039 -0.000131 0.000070 -5.0569 0.0049 -0.0044
58 1 -13.1249 13.1250 -9.3750 0.000096 -0.000068 -0.000088 -5.0566 0.0012 0.0036
59 1 -13.1251 13.1250 -5.6250 -0.000113 0.000041 -0.000024 -5.0553 -0.0051 -0.0020
60 1 -13.1250 13.1250 -1.8750 -0.000030 0.000083 -0.000052 -5.0539 -0.0020 -0.0001
61 1 -13.1249 13.1249 1.8750 0.000118 -0.000117 -0.000069 -5.0576 0.0054 -0.0012
62 1 -13.1251 13.1250 5.6249 -0.000121 0.000047 -0.000134 -5.0538 -0.0025 0.0041
63 1 -13.1250 13.1250 9.3750 -0.000084 -0.000025 0.000054 -5.0517 -0.0011 -0.0048
64 1 -13.1250 13.1250 13.1250 0.000071 0.000026 -0.000023 -5.0578 0.0017 0.0031
65 1 -9.3750 -13.1250 -13.1250 -0.000010 0.000019 -0.000008 0.2009 -0.0004 -0.0032
66 1 -9.3750 -13.1250 -9.3750 0.000017 -0.000014 0.000013 0.2002 -0.0000 0.0024
67 1 -9.3750 -13.1249 -5.6249 0.000061 0.000127 0.000156 0.1971 -0.0034 -0.0069
68 1 -9.3749 -13.1249 -1.8751 0.000113 0.000124 -0.000110 0.1978 -0.0063 0.0051
69 1 -9.3750 -13.1249 1.8750 -0.000020 0.000120 -0.000062 0.2024 -0.0040 -0.0018
70 1 -9.3751 -13.1250 5.6250 -0.000226 0.000011 -0.000098 0.2080 -0.0008 0.0012
71 1 -9.3749 -13.1250 9.3750 0.000245 -0.000006 -0.000056 0.1922 0.0014 -0.0038
72 1 -9.3751 -13.1251 13.1249 -0.000113 -0.000107 -0.000192 0.2052 0.0033 0.0049
73 1 -9.3750 -9.3750 -13.1250 0.000058 -0.000034 0.000037 0.1988 0.0006 0.0002
74 1 -9.3750 -9.3750 -9.3750 -0.000005 -0.000089 0.000033 0.1998 0.0039 -0.0020
75 1 -9.3750 -9.3750 -5.6250 0.000041 -0.000016 -0.000086 0.2015 0.0017 0.0035
76 1 -9.3750 -9.3750 -1.8750 -0.000080 -0.000036 0.000012 0.2024 0.0042 -0.0052
77 1 -9.3750 -9.3750 1.8749 0.000024 -0.000017 -0.000169 0.1978 0.0042 0.0039
78 1 -9.3750 -9.3750 5.6249 -0.000050 0.000071 -0.000100 0.2046 -0.0024 -0.0002
79 1 -9.3751 -9.3750 9.3750 -0.000173 0.000088 -0.000017 0.2059 -0.0051 -0.0003
80 1 -9.3750 -9.3750 13.1250 0.000053 -0.000063 0.000053 0.1994 0.0005 -0.0010
81 1 -9.3750 -5.6250 -13.1250 -0.000062 -0.000056 0.000086 0.2072 0.0001 -0.0033
82 1 -9.3750 -5.6250 -9.3750 0.000046 0.000068 -0.000025 0.2007 -0.0048 0.0024
83 1 -9.3749 -5.6250 -5.6250 0.000169 -0.000073 0.000012 0.1940 0.0033 0.0005
84 1 -9.3750 -5.6250 -1.8750 -0.000039 0.000038 0.000069 0.2050 -0.0001 -0.0027
85 1 -9.3749 -5.6250 1.8750 0.000146 0.000090 -0.000036 0.1966 -0.0064 0.0027
86 1 -9.3750 -5.6250 5.6250 0.000051 -0.000003 0.000011 0.1987 0.0025 -0.0010
87 1 -9.3749 -5.6251 9.3750 0.000186 -0.000111 0.000000 0.1914 0.0040 -0.0001
88 1 -9.3750 -5.6250 13.1250 0.000011 0.000036 -0.000006 0.1951 -0.0014 0.0018
89 1 -9.3749 -1.8750 -13.1250 0.000104 -0.000050 -0.000097 0.1991 0.0027 0.0040
90 1 -9.3750 -1.8750 -9.3750 -0.000077 -0.000044 0.000060 0.2070 0.0024 -0.0042
91 1 -9.3750 -1.8750 -5.6250 -0.000037 0.000085 -0.000018 0.1978 -0.0062 0.0058
92 1 -9.3750 -1.8750 -1.8749 0.000034 0.000086 0.000235 0.2021 -0.0034 -0.0066
93 1 -9.3749 -1.8751 1.8750 0.000105 -0.000160 0.000080 0.2011 0.0040 -0.0007
94 1 -9.3750 -1.8750 5.6249 0.000075 0.000056 -0.000132 0.2007 -0.0027 0.0053
95 1 -9.3750 -1.8750 9.3750 -0.000074 -0.000074 -0.000017 0.2007 -0.0007 -0.0022
96 1 -9.3751 -1.8750 13.1250 -0.000162 0.000044 -0.000006 0.2027 -0.0019 -0.0018
97 1 -9.3750 1.8751 -13.1250 -0.000045 0.000117 -0.000012 0.2015 -0.0033 0.0016
98 1 -9.3750 1.8750 -9.3749 0.000034 -0.000012 0.000129 0.2041 -0.0009 -0.0048
99 1 -9.3751 1.8749 -5.6250 -0.000137 -0.000105 -0.000010 0.2078 0.0035 0.0030
100 1 -9.3750 1.8750 -1.8750 -0.000099 -0.000083 -0.000004 0.2027 0.0064 -0.0002
101 1 -9.3750 1.8749 1.8750 0.000036 -0.000138 0.000005 0.1999 0.0030 -0.0018
102 1 -9.3750 1.8750 5.6250 -0.000001 -0.000046 -0.000062 0.2006 0.0012 0.0050
103 1 -9.3750 1.8750 9.3751 -0.000004 -0.000052 0.000140 0.1968 -0.0013 -0.0069
104 1 -9.3750 1.8750 13.1250 -0.000025 -0.000058 -0.000068 0.2016 -0.0005 0.0045
105 1 -9.3751 5.6250 -13.1250 -0.000226 0.000070 0.000016 0.2099 0.0008 0.0049
106 1 -9.3749 5.6250 -9.3749 0.000148 -0.000025 0.000161 0.1981 0.0010 -0.0067
107 1 -9.3751 5.6250 -5.6251 -0.000169 -0.000091 -0.000109 0.2008 0.0003 0.0039
108 1 -9.3751 5.6251 -1.8751 -0.000138 0.000103 -0.000139 0.2057 -0.0047 0.0072
109 1 -9.3751 5.6250 1.8751 -0.000104 0.000082 0.000272 0.2077 -0.0025 -0.0121
110 1 -9.3750 5.6250 5.6250 0.000088 -0.000082 -0.000038 0.1983 0.0015 0.0061
111 1 -9.3750 5.6250 9.3750 0.000034 -0.000092 -0.000000 0.1984 0.0024 0.0014
112 1 -9.3750 5.6249 13.1251 0.000070 -0.000170 0.000115 0.1956 0.0048 -0.0034
113 1 -9.3750 9.3750 -13.1250 0.000015 0.000036 0.000002 0.2010 0.0006 -0.0019
114 1 -9.3750 9.3750 -9.3751 -0.000005 0.000029 -0.000109 0.2033 -0.0001 0.0037
115 1 -9.3750 9.3750 -5.6250 -0.000023 -0.000038 0.000028 0.1989 0.0006 0.0015
116 1 -9.3751 9.3750 -1.8749 -0.000175 0.000013 0.000238 0.2076 0.0001 -0.0060
117 1 -9.3751 9.3751 1.8750 -0.000148 0.000138 0.000059 0.2043 -0.0026 0.0010
118 1 -9.3750 9.3750 5.6250 -0.000049 -0.000014 -0.000063 0.2042 -0.0027 0.0017
119 1 -9.3749 9.3750 9.3750 0.000194 0.000007 -0.000085 0.1942 -0.0025 0.0016
120 1 -9.3751 9.3750 13.1250 -0.000106 0.000014 0.000004 0.2051 -0.0024 -0.0019
121 1 -9.3750 13.1250 -13.1250 -0.000051 0.000035 -0.000043 0.2040 -0.0000 0.0039
122 1 -9.3750 13.1250 -9.3750 -0.000000 0.000068 0.000097 0.1971 -0.0020 -0.0026
123 1 -9.3750 13.1250 -5.6250 -0.000086 0.000059 0.000069 0.1992 -0.0002 -0.0000
124 1 -9.3750 13.1250 -1.8750 0.000061 -0.000073 0.000028 0.1996 0.0047 0.0023
125 1 -9.3750 13.1250 1.8751 -0.000038 0.000018 0.000104 0.2049 0.0042 -0.0052
126 1 -9.3750 13.1250 5.6249 -0.000007 -0.000080 -0.000130 0.1960 0.0024 0.0085
127 1 -9.3749 13.1250 9.3751 0.000140 -0.000035 0.000117 0.1970 0.0013 -0.0055
128 1 -9.3750 13.1250 13.1250 -0.000087 0.000065 0.000039 0.2026 -0.0037 0.0003
129 1 -5.6250 -13.1250 -13.1249 0.000069 0.000008 0.000175 -0.0034 -0.0015 -0.0071
130 1 -5.6250 -13.1250 -9.3750 0.000024 -0.000017 -0.000064 0.0019 0.0023 0.0053
131 1 -5.6250 -13.1250 -5.6250 -0.000051 0.000042 0.000005 -0.0002 -0.0031 -0.0008
132 1 -5.6250 -13.1250 -1.8750 0.000067 -0.000040 0.000027 -0.0025 0.0013 -0.0017
133 1 -5.6250 -13.1250 1.8750 -0.000082 0.000017 -0.000053 0.0025 0.0040 0.0001
134 1 -5.6250 -13.1249 5.6249 -0.000037 0.000169 -0.000104 -0.0051 -0.0058 0.0038
135 1 -5.6251 -13.1250 9.3750 -0.000175 0.000056 0.000081 0.0079 -0.0020 -0.0052
136 1 -5.6250 -13.1250 13.1250 0.000090 -0.000037 -0.000020 -0.0073 0.0007 0.0054
137 1 -5.6250 -9.3750 -13.1250 -0.000053 0.000094 0.000048 0.0057 -0.0021 -0.0018
138 1 -5.6250 -9.3750 -9.3750 -0.000005 0.000093 -0.000042 -0.0022 -0.0006 0.0016
139 1 -5.6249 -9.3750 -5.6250 0.000111 0.000004 -0.000043 -0.0019 0.0017 0.0035
140 1 -5.6250 -9.3750 -1.8749 0.000091 -0.000004 0.000152 -0.0066 -0.0018 -0.0055
141 1 -5.6250 -9.3750 1.8750 -0.000040 0.000085 0.000013 0.0013 0.0009 0.0032
142 1 -5.6250 -9.3750 5.6250 0.000091 0.000009 0.000035 -0.0012 0.0022 0.0004
143 1 -5.6250 -9.3750 9.3750 0.000020 0.000091 0.000059 -0.0016 -0.0035 -0.0006
144 1 -5.6250 -9.3749 13.1250 0.000005 0.000116 0.000040 -0.0003 -0.0045 0.0005
145 1 -5.6250 -5.6250 -13.1250 0.000020 0.000054 -0.000022 -0.0017 -0.0010 -0.0000
146 1 -5.6250 -5.6249 -9.3750 0.000071 0.000140 -0.000028 -0.0001 -0.0016 0.0009
147 1 -5.6250 -5.6250 -5.6250 0.000018 0.000067 0.000014 0.0008 -0.0011 -0.0025
148 1 -5.6250 -5.6250 -1.8750 0.000078 -0.000058 -0.000086 -0.0032 0.0032 0.0032
149 1 -5.6250 -5.6249 1.8750 0.000034 0.000181 0.000019 0.0024 -0.0037 -0.0018
150 1 -5.6251 -5.6250 5.6250 -0.000117 -0.000020 0.000023 0.0066 0.0029 -0.0003
151 1 -5.6250 -5.6250 9.3750 -0.000072 -0.000072 0.000009 0.0080 0.0071 -0.0002
152 1 -5.6250 -5.6250 13.1250 -0.000024 -0.000000 -0.000003 0.0037 0.0047 -0.0002
153 1 -5.6250 -1.8750 -13.1250 0.000053 -0.000039 0.000038 0.0023 0.0012 -0.0007
154 1 -5.6250 -1.8750 -9.3750 0.000075 0.000078 0.000015 -0.0021 0.0007 0.0014
155 1 -5.6251 -1.8750 -5.6250 -0.000141 0.000054 0.000064 0.0022 -0.0007 -0.0005
156 1 -5.6250 -1.8750 -1.8750 0.000098 0.000089 0.000057 -0.0035 -0.0031 -0.0012
157 1 -5.6249 -1.8750 1.8750 0.000137 0.000031 -0.000030 -0.0044 0.0025 0.0018
158 1 -5.6250 -1.8749 5.6250 0.000053 0.000111 -0.000007 -0.0016 -0.0057 -0.0000
159 1 -5.6250 -1.8749 9.3750 -0.000007 0.000161 0.000028 -0.0018 -0.0055 -0.0011
160 1 -5.6251 -1.8749 13.1250 -0.000103 0.000143 0.000003 0.0016 -0.0070 0.0013
161 1 -5.6251 1.8750 -13.1250 -0.000107 -0.000046 -0.000055 0.0036 0.0008 0.0015
162 1 -5.6249 1.8750 -9.3750 0.000132 0.000031 0.000062 -0.0028 0.0021 -0.0044
163 1 -5.6249 1.8750 -5.6250 0.000146 0.000010 -0.000068 -0.0052 0.0010 0.0038
164 1 -5.6251 1.8750 -1.8750 -0.000233 0.000058 0.000033 0.0050 0.0012 -0.0010
165 1 -5.6250 1.8750 1.8750 0.000039 0.000011 0.000059 0.0003 -0.0014 0.0008
166 1 -5.6250 1.8750 5.6251 0.000015 -0.000074 0.000106 0.0017 0.0038 -0.0007
167 1 -5.6251 1.8750 9.3750 -0.000112 0.000059 0.000087 0.0042 0.0019 -0.0024
168 1 -5.6250 1.8749 13.1250 0.000081 -0.000119 -0.000081 -0.0032 0.0046 0.0032
169 1 -5.6249 5.6250 -13.1251 0.000176 0.000003 -0.000171 -0.0089 0.0013 0.0025
170 1 -5.6250 5.6250 -9.3751 0.000022 0.000094 -0.000105 0.0024 -0.0014 0.0030
171 1 -5.6251 5.6250 -5.6249 -0.000186 0.000022 0.000150 0.0027 0.0000 -0.0076
172 1 -5.6250 5.6250 -1.8750 0.000037 0.000080 -0.000055 -0.0030 -0.0029 0.0046
173 1 -5.6249 5.6250 1.8750 0.000137 -0.000087 0.000001 -0.0031 0.0018 0.0001
174 1 -5.6250 5.6250 5.6250 -0.000049 -0.000040 0.000085 0.0021 0.0011 -0.0027
175 1 -5.6250 5.6250 9.3750 0.000060 0.000018 0.000002 -0.0030 -0.0008 0.0001
176 1 -5.6250 5.6249 13.1250 -0.000095 -0.000109 -0.000067 0.0068 0.0021 -0.0011
177 1 -5.6250 9.3751 -13.1251 0.000020 0.000118 -0.000133 0.0013 -0.0070 0.0053
178 1 -5.6249 9.3750 -9.3750 0.000117 0.000060 -0.000008 -0.0039 -0.0003 -0.0024
179 1 -5.6251 9.3750 -5.6250 -0.000132 0.000043 -0.000013 0.0058 -0.0026 0.0012
180 1 -5.6250 9.3750 -1.8750 -0.000086 -0.000079 0.000050 -0.0001 0.0042 -0.0020
181 1 -5.6250 9.3750 1.8750 -0.000012 -0.000065 0.000004 -0.0028 0.0037 -0.0018
182 1 -5.6250 9.3750 5.6249 0.000047 0.000048 -0.000130 -0.0053 -0.0025 0.0042
183 1 -5.6250 9.3750 9.3750 -0.000049 -0.000086 -0.000006 0.0063 0.0014 -0.0014
184 1 -5.6250 9.3750 13.1250 0.000090 0.000041 0.000047 -0.0042 -0.0063 -0.0040
185 1 -5.6250 13.1249 -13.1250 0.000048 -0.000164 -0.000086 -0.0022 0.0077 0.0069
186 1 -5.6251 13.1250 -9.3749 -0.000295 0.000001 0.000152 0.0107 0.0010 -0.0085
187 1 -5.6251 13.1250 -5.6251 -0.000119 -0.000087 -0.000113 0.0051 0.0043 0.0047
188 1 -5.6250 13.1250 -1.8750 0.000071 0.000013 -0.000091 -0.0010 -0.0026 0.0027
189 1 -5.6250 13.1251 1.8751 0.000039 0.000175 0.000109 -0.0009 -0.0066 -0.0046
190 1 -5.6251 13.1250 5.6250 -0.000150 -0.000021 0.000038 0.0035 0.0046 0.0044
191 1 -5.6249 13.1250 9.3751 0.000147 -0.000090 0.000178 -0.0030 0.0027 -0.0040
192 1 -5.6251 13.1249 13.1250 -0.000127 -0.000151 0.000073 0.0021 0.0052 -0.0008
193 1 -1.8750 -13.1250 -13.1250 -0.000045 0.000018 -0.000045 -0.0424 0.0239 0.0010
194 1 -1.8749 -13.1250 -9.3750 0.000115 0.000066 -0.000006 -0.0525 0.0176 -0.0004
195 1 -1.8751 -13.1250 -5.6250 -0.000155 0.000083 0.000001 -0.0433 0.0249 -0.0004
196 1 -1.8751 -13.1250 -1.8750 -0.000127 0.000050 -0.000015 -0.0407 0.0205 0.0011
197 1 -1.8750 -13.1250 1.8750 0.000010 0.000064 0.000043 -0.0487 0.0213 -0.0018
198 1 -1.8751 -13.1250 5.6250 -0.000128 -0.000026 -0.000012 -0.0407 0.0254 0.0038
199 1 -1.8751 -13.1250 9.3751 -0.000112 0.000048 0.000142 -0.0465 0.0202 -0.0054
200 1 -1.8751 -13.1251 13.1250 -0.000136 -0.000130 -0.000013 -0.0437 0.0259 0.0020
201 1 -1.8749 -9.3750 -13.1250 0.000160 0.000055 0.000014 -0.0056 0.0011 0.0014
202 1 -1.8751 -9.3751 -9.3750 -0.000111 -0.000168 -0.000049 0.0011 0.0066 0.0018
203 1 -1.8750 -9.3749 -5.6250 0.000055 0.000117 -0.000009 0.0018 -0.0025 0.0014
204 1 -1.8751 -9.3750 -1.8750 -0.000106 -0.000078 0.000100 0.0049 0.0031 -0.0039
205 1 -1.8750 -9.3750 1.8750 -0.000015 -0.000020 -0.000019 0.0014 0.0022 0.0023
206 1 -1.8749 -9.3750 5.6250 0.000134 0.000051 -0.000007 -0.0014 -0.0043 0.0006
207 1 -1.8749 -9.3750 9.3750 0.000117 0.000016 0.000033 -0.0054 0.0009 0.0009
208 1 -1.8750 -9.3750 13.1251 -0.000060 -0.000062 0.000132 0.0023 -0.0011 -0.0034
209 1 -1.8750 -5.6249 -13.1250 0.000007 0.000139 -0.000016 -0.0030 -0.0034 0.0003
210 1 -1.8750 -5.6250 -9.3750 0.000076 0.000022 -0.000063 -0.0002 -0.0050 -0.0003
211 1 -1.8750 -5.6250 -5.6251 -0.000088 -0.000027 -0.000119 0.0033 0.0040 0.0028
212 1 -1.8750 -5.6250 -1.8750 0.000015 -0.000017 -0.000005 0.0013 -0.0006 -0.0016
213 1 -1.8750 -5.6250 1.8750 0.000051 0.000025 0.000018 0.0006 -0.0016 -0.0016
214 1 -1.8749 -5.6251 5.6250 0.000111 -0.000118 -0.000046 -0.0072 0.0066 0.0040
215 1 -1.8749 -5.6250 9.3751 0.000118 0.000039 0.000125 -0.0057 -0.0011 -0.0039
216 1 -1.8749 -5.6250 13.1250 0.000138 -0.000028 0.000055 -0.0070 0.0003 0.0003
217 1 -1.8749 -1.8750 -13.1250 0.000103 0.000004 0.000010 -0.0049 0.0009 -0.0019
218 1 -1.8749 -1.8750 -9.3750 0.000100 -0.000045 -0.000036 -0.0015 0.0031 -0.0017
219 1 -1.8750 -1.8750 -5.6251 -0.000074 0.000054 -0.000154 -0.0015 -0.0008 0.0022
220 1 -1.8750 -1.8750 -1.8751 -0.000062 0.000013 -0.000113 0.0058 -0.0009 0.0000
221 1 -1.8750 -1.8750 1.8750 -0.000085 -0.000018 -0.000058 0.0046 0.0013 0.0025
222 1 -1.8750 -1.8749 5.6251 -0.000065 0.000102 0.000139 0.0025 -0.0073 -0.0048
223 1 -1.8750 -1.8750 9.3750 -0.000050 -0.000014 0.000041 0.0027 -0.0031 0.0002
224 1 -1.8750 -1.8750 13.1250 0.000078 0.000042 -0.000049 -0.0041 -0.0028 0.0025
225 1 -1.8750 1.8750 -13.1250 0.000075 -0.000081 0.000032 -0.0131 -0.0046 0.0087
226 1 -1.8750 1.8750 -9.3749 0.000055 0.000078 0.000113 0.0004 -0.0031 -0.0044
227 1 -1.8750 1.8750 -5.6250 0.000087 0.000076 -0.000080 -0.0132 -0.0056 -0.0041
228 1 -1.8750 1.8750 -1.8751 -0.000023 -0.000007 -0.000181 -0.0408 -0.0198 -0.0025
229 1 -1.8750 1.8750 1.8750 0.000054 0.000015 -0.000065 -0.0501 -0.0254 -0.0022
230 1 -1.8749 1.8749 5.6250 0.000115 -0.000105 -0.000045 -0.0490 -0.0192 -0.0018
231 1 -1.8750 1.8749 9.3750 0.000044 -0.000211 -0.000091 -0.0513 -0.0182 0.0038
232 1 -1.8750 1.8750 13.1250 -0.000023 -0.000045 0.000094 -0.0361 -0.0126 0.0017
233 1 -1.8750 5.6250 -13.1250 0.000047 -0.000079 -0.000009 -0.0712 -0.0210 0.0095
234 1 -1.8750 5.6250 -9.3751 0.000032 0.000019 -0.000102 -0.0442 -0.0225 0.0029
235 1 -1.8750 5.6250 -5.6250 -0.000005 0.000099 -0.000015 -0.0749 -0.0248 -0.0129
236 1 -1.8750 5.6249 -1.8750 0.000018 -0.000121 0.000025 -0.1328 -0.0183 -0.0103
237 1 -1.8749 5.6250 1.8751 0.000171 -0.000063 0.000125 -0.1580 -0.0214 -0.0029
238 1 -1.8750 5.6250 5.6250 -0.000046 -0.000058 0.000034 -0.1530 -0.0249 0.0017
239 1 -1.8751 5.6250 9.3750 -0.000107 -0.000060 0.000033 -0.1499 -0.0256 -0.0012
240 1 -1.8749 5.6251 13.1250 0.000153 0.000135 -0.000055 -0.1379 -0.0257 0.0146
241 1 -1.8749 9.3750 -13.1250 0.000111 0.000095 -0.000030 -0.1716 -0.0228 0.0045
242 1 -1.8750 9.3750 -9.3750 -0.000021 0.000024 -0.000012 -0.1517 -0.0251 -0.0012
243 1 -1.8750 9.3750 -5.6250 0.000087 0.000037 -0.000072 -0.1707 -0.0156 -0.0034
244 1 -1.8750 9.3750 -1.8750 0.000018 0.000095 0.000015 -0.1915 -0.0112 -0.0066
245 1 -1.8750 9.3750 1.8750 -0.000019 -0.000024 0.000069 -0.2001 -0.0004 -0.0029
246 1 -1.8751 9.3750 5.6250 -0.000167 -0.000069 -0.000041 -0.1954 0.0013 0.0028
247 1 -1.8750 9.3750 9.3750 0.000076 0.000003 -0.000007 -0.2050 -0.0036 -0.0030
248 1 -1.8750 9.3751 13.1249 0.000020 0.000149 -0.000127 -0.1888 -0.0090 0.0093
249 1 -1.8750 13.1250 -13.1250 -0.000007 -0.000010 0.000048 -0.1550 0.0261 -0.0044
250 1 -1.8750 13.1250 -9.3751 0.000069 -0.000048 -0.000141 -0.1615 0.0268 0.0052
251 1 -1.8749 13.1250 -5.6250 0.000137 0.000098 0.000003 -0.1597 0.0228 -0.0019
252 1 -1.8750 13.1250 -1.8750 0.000006 -0.000002 0.000025 -0.1530 0.0264 -0.0000
253 1 -1.8750 13.1250 1.8750 0.000050 0.000001 0.000026 -0.1547 0.0241 -0.0007
254 1 -1.8750 13.1250 5.6250 -0.000054 0.000006 -0.000008 -0.1518 0.0217 0.0049
255 1 -1.8750 13.1249 9.3751 -0.000073 -0.000131 0.000218 -0.1484 0.0288 -0.0078
256 1 -1.8750 13.1250 13.1250 -0.000003 -0.000040 -0.000017 -0.1577 0.0256 0.0055
257 1 1.8751 -13.1250 -13.1251 0.000118 0.000056 -0.000167 -0.7779 0.6003 0.0073
258 1 1.8749 -13.1250 -9.3750 -0.000114 -0.000092 0.000016 -0.7672 0.5995 -0.0051
259 1 1.8750 -13.1250 -5.6250 0.000006 -0.000001 -0.000071 -0.7709 0.5948 0.0043
260 1 1.8750 -13.1250 -1.8750 0.000053 0.000034 0.000090 -0.7756 0.5914 -0.0072
261 1 1.8750 -13.1251 1.8749 0.000019 -0.000100 -0.000171 -0.7714 0.5991 0.0089
262 1 1.8751 -13.1250 5.6250 0.000170 -0.000017 0.000077 -0.7796 0.5984 -0.0037
263 1 1.8750 -13.1251 9.3750 0.000009 -0.000114 0.000091 -0.7729 0.6051 -0.0003
264 1 1.8749 -13.1250 13.1250 -0.000148 -0.000023 0.000070 -0.7711 0.5972 -0.0036
265 1 1.8750 -9.3749 -13.1251 0.000019 0.000151 -0.000211 -0.2203 0.0436 0.0052
266 1 1.8749 -9.3749 -9.3750 -0.000104 0.000147 0.000042 -0.2221 0.0421 -0.0042
267 1 1.8750 -9.3750 -5.6250 0.000055 -0.000056 0.000046 -0.2259 0.0492 0.0003
268 1 1.8750 -9.3751 -1.8750 -0.000015 -0.000104 0.000033 -0.2283 0.0518 -0.0031
269 1 1.8750 -9.3750 1.8749 0.000094 -0.000004 -0.000150 -0.2274 0.0460 0.0048
270 1 1.8750 -9.3750 5.6250 0.000072 0.000048 -0.000041 -0.2240 0.0462 -0.0011
271 1 1.8749 -9.3749 9.3750 -0.000104 0.000179 0.000018 -0.2194 0.0403 -0.0038
272 1 1.8750 -9.3750 13.1249 0.000027 0.000027 -0.000134 -0.2275 0.0471 0.0007
273 1 1.8749 -5.6250 -13.1250 -0.000143 0.000010 0.000045 -0.1995 0.0030 -0.0054
274 1 1.8750 -5.6250 -9.3750 0.000042 0.000067 -0.000076 -0.1992 0.0013 0.0024
275 1 1.8750 -5.6250 -5.6250 0.000013 0.000017 -0.000046 -0.2023 -0.0006 0.0003
276 1 1.8750 -5.6250 -1.8750 0.000011 0.000014 0.000014 -0.1998 -0.0042 0.0002
277 1 1.8750 -5.6250 1.8750 0.000086 0.000011 0.000078 -0.2017 -0.0032 -0.0024
278 1 1.8750 -5.6250 5.6250 -0.000066 0.000053 -0.000015 -0.1963 -0.0034 0.0016
279 1 1.8750 -5.6250 9.3750 -0.000019 0.000050 -0.000018 -0.1967 0.0033 -0.0027
280 1 1.8749 -5.6250 13.1249 -0.000112 0.000066 -0.000150 -0.1916 -0.0030 0.0055
281 1 1.8749 -1.8750 -13.1250 -0.000129 0.000042 -0.000015 -0.2041 -0.0139 0.0054
282 1 1.8750 -1.8750 -9.3750 0.000027 0.000042 0.000056 -0.1982 -0.0008 0.0001
283 1 1.8750 -1.8750 -5.6249 -0.000067 0.000051 0.000119 -0.2039 -0.0133 -0.0105
284 1 1.8750 -1.8751 -1.8751 0.000097 -0.000102 -0.000106 -0.2206 -0.0322 -0.0000
285 1 1.8750 -1.8751 1.8750 -0.000036 -0.000144 -0.000000 -0.2250 -0.0445 -0.0013
286 1 1.8750 -1.8751 5.6250 -0.000030 -0.000150 0.000036 -0.2266 -0.0410 -0.0001
287 1 1.8750 -1.8750 9.3750 0.000072 0.000091 0.000075 -0.2292 -0.0487 -0.0036
288 1 1.8750 -1.8750 13.1250 0.000023 -0.000072 -0.000098 -0.2177 -0.0328 0.0100
289 1 1.8751 1.8750 -13.1250 0.000168 -0.000058 -0.000047 -0.3229 -0.1383 0.1041
290 1 1.8750 1.8750 -9.3750 -0.000001 -0.000039 0.000014 -0.2358 -0.0573 -0.0047
291 1 1.8750 1.8750 -5.6251 -0.000084 -0.000024 -0.000171 -0.3117 -0.1394 -0.0957
292 1 1.8750 1.8750 -1.8751 -0.000078 -0.000015 -0.000130 -0.6741 -0.5023 -0.0980
293 1 1.8750 1.8749 1.8750 -0.000082 -0.000115 -0.000022 -0.7602 -0.5908 -0.0121
294 1 1.8750 1.8750 5.6250 0.000097 0.000019 0.000059 -0.7717 -0.5967 -0.0044
295 1 1.8750 1.8750 9.3749 -0.000025 0.000026 -0.000113 -0.7638 -0.5887 0.0199
296 1 1.8749 1.8750 13.1251 -0.000128 -0.000032 0.000181 -0.6777 -0.5046 0.0905
297 1 1.8750 5.6250 -13.1250 -0.000065 -0.000024 0.000059 -1.1407 -0.5958 0.3801
298 1 1.8751 5.6250 -9.3750 0.000201 -0.000019 0.000015 -0.8024 -0.5961 0.0000
299 1 1.8750 5.6250 -5.6250 -0.000005 -0.000035 -0.000040 -1.1431 -0.5934 -0.3868
300 1 1.8749 5.6250 -1.8751 -0.000185 0.000047 -0.000178 6.0031 -0.5951 -0.3803
301 1 1.8750 5.6249 1.8750 -0.000087 -0.000152 -0.000014 5.6434 -0.5907 -0.0257
302 1 1.8750 5.6250 5.6250 -0.000014 0.000088 0.000069 5.6261 -0.6007 -0.0046
303 1 1.8750 5.6250 9.3749 -0.000050 -0.000030 -0.000113 5.6377 -0.5933 0.0254
304 1 1.8749 5.6249 13.1249 -0.000098 -0.000131 -0.000203 6.0045 -0.5899 0.3909
305 1 1.8749 9.3750 -13.1251 -0.000177 -0.000037 -0.000151 5.5620 -0.4497 0.1044
306 1 1.8750 9.3750 -9.3750 -0.000053 -0.000045 -0.000021 5.6391 -0.5360 -0.0036
307 1 1.8750 9.3750 -5.6250 -0.000019 0.000066 -0.000079 5.5591 -0.4566 -0.0944
308 1 1.8750 9.3750 -1.8749 -0.000013 0.000078 0.000116 5.1967 -0.0958 -0.1020
309 1 1.8750 9.3750 1.8751 0.000015 0.000076 0.000114 5.1081 -0.0102 -0.0170
310 1 1.8750 9.3749 5.6249 -0.000055 -0.000176 -0.000201 5.1003 0.0090 0.0086
311 1 1.8750 9.3750 9.3750 -0.000062 0.000010 -0.000016 5.1109 -0.0037 0.0091
312 1 1.8750 9.3750 13.1250 -0.000024 0.000079 0.000032 5.1970 -0.0978 0.0952
313 1 1.8749 13.1251 -13.1250 -0.000142 0.000219 -0.000057 5.6467 0.5525 0.0111
314 1 1.8750 13.1250 -9.3749 -0.000012 -0.000054 0.000111 5.6521 0.5468 -0.0068
315 1 1.8750 13.1250 -5.6251 0.000011 0.000044 -0.000121 5.6470 0.5591 -0.0012
316 1 1.8750 13.1250 -1.8750 -0.000043 -0.000036 -0.000089 5.6333 0.5866 -0.0067
317 1 1.8750 13.1250 1.8750 -0.000029 0.000043 -0.000076 5.6280 0.5931 -0.0017
318 1 1.8751 13.1250 5.6249 0.000128 0.000086 -0.000140 5.6240 0.5884 0.0065
319 1 1.8750 13.1251 9.3751 -0.000016 0.000160 0.000169 5.6257 0.5878 -0.0074
320 1 1.8749 13.1250 13.1250 -0.000123 0.000032 0.000056 5.6346 0.5831 0.0059
321 1 5.6250 -13.1250 -13.1250 -0.000078 -0.000019 0.000032 5.0588 -6.2952 0.0004
322 1 5.6250 -13.1249 -9.3750 -0.000044 0.000109 -0.000008 5.0538 -6.2922 0.0014
323 1 5.6251 -13.1250 -5.6250 0.000236 0.000038 0.000028 5.0519 -6.2923 -0.0011
324 1 5.6250 -13.1250 -1.8750 0.000030 0.000054 -0.000017 5.0557 -6.2945 -0.0005
325 1 5.6250 -13.1250 1.8750 0.000078 -0.000086 -0.000091 5.0544 -6.2928 0.0010
326 1 5.6250 -13.1250 5.6249 0.000033 -0.000020 -0.000107 5.0578 -6.2892 -0.0002
327 1 5.6250 -13.1250 9.3749 0.000082 0.000036 -0.000116 5.0543 -6.2929 0.0037
328 1 5.6250 -13.1251 13.1250 -0.000063 -0.000203 0.000087 5.0536 -6.2910 -0.0046
329 1 5.6250 -9.3751 -13.1250 0.000087 -0.000143 0.000016 5.0548 0.1101 -0.0002
330 1 5.6250 -9.3749 -9.3750 0.000051 0.000123 -0.000039 5.0527 0.1055 -0.0030
331 1 5.6250 -9.3750 -5.6251 -0.000048 0.000072 -0.000249 5.0569 0.1011 0.0069
332 1 5.6249 -9.3750 -1.8750 -0.000122 -0.000040 -0.000038 5.0567 0.1071 -0.0030
333 1 5.6250 -9.3750 1.8750 0.000024 -0.000070 0.000026 5.0567 0.1060 -0.0017
334 1 5.6250 -9.3749 5.6250 0.000015 0.000178 -0.000020 5.0565 0.0974 -0.0013
335 1 5.6250 -9.3750 9.3749 -0.000025 0.000017 -0.000139 5.0537 0.1054 0.0052
336 1 5.6250 -9.3750 13.1250 -0.000076 -0.000063 0.000046 5.0568 0.1045 -0.0038
337 1 5.6249 -5.6250 -13.1250 -0.000195 -0.000010 -0.000017 5.0554 -0.0027 0.0023
338 1 5.6250 -5.6250 -9.3750 0.000067 0.000086 -0.000005 5.0552 -0.0014 -0.0006
339 1 5.6250 -5.6251 -5.6250 0.000027 -0.000167 -0.000031 5.0550 0.0056 0.0029
340 1 5.6250 -5.6250 -1.8750 0.000060 -0.000071 0.000098 5.0546 0.0001 -0.0032
341 1 5.6250 -5.6250 1.8750 0.000048 -0.000033 0.000038 5.0561 0.0017 0.0018
342 1 5.6250 -5.6251 5.6250 0.000012 -0.000125 0.000076 5.0539 0.0034 -0.0034
343 1 5.6250 -5.6250 9.3750 0.000054 -0.000024 -0.000079 5.0541 0.0015 0.0060
344 1 5.6251 -5.6250 13.1251 0.000153 0.000001 0.000110 5.0513 -0.0036 -0.0055
345 1 5.6249 -1.8750 -13.1249 -0.000188 -0.000013 0.000150 5.0558 -0.0240 0.0110
346 1 5.6250 -1.8750 -9.3750 0.000076 -0.000045 0.000075 5.0548 0.0025 0.0035
347 1 5.6250 -1.8750 -5.6249 0.000104 -0.000071 0.000179 5.0523 -0.0276 -0.0155
348 1 5.6251 -1.8750 -1.8750 0.000114 -0.000098 0.000067 5.0552 -0.0784 -0.0090
349 1 5.6250 -1.8750 1.8751 -0.000008 0.000091 0.000107 5.0546 -0.1113 -0.0002
350 1 5.6249 -1.8751 5.6251 -0.000101 -0.000222 0.000120 5.0562 -0.0998 -0.0000
351 1 5.6250 -1.8750 9.3751 -0.000083 0.000013 0.000117 5.0578 -0.1070 0.0008
352 1 5.6250 -1.8751 13.1251 -0.000008 -0.000130 0.000139 5.0561 -0.0759 0.0123
353 1 5.6250 1.8750 -13.1250 -0.000081 -0.000019 0.000010 5.0598 -0.4793 0.3844
354 1 5.6250 1.8750 -9.3750 -0.000020 -0.000035 -0.000024 5.0555 -0.1286 0.0008
355 1 5.6250 1.8749 -5.6250 0.000085 -0.000161 -0.000004 5.0522 -0.4748 -0.3846
356 1 5.6251 1.8750 -1.8750 0.000134 0.000084 0.000052 5.0516 6.6633 -0.3875
357 1 5.6251 1.8749 1.8750 0.000130 -0.000110 -0.000019 5.0517 6.3083 -0.0222
358 1 5.6250 1.8750 5.6250 0.000077 0.000060 0.000013 5.0559 6.2880 -0.0006
359 1 5.6250 1.8750 9.3750 0.000048 -0.000016 0.000022 5.0543 6.3052 0.0234
360 1 5.6249 1.8750 13.1250 -0.000131 0.000090 -0.000003 5.0550 6.6625 0.3857
361 1 5.6250 5.6250 -13.1250 0.000096 -0.000021 0.000012 5.0527 6.2928 -7.0880
362 1 5.6250 5.6250 -9.3750 -0.000022 0.000047 -0.000015 5.0592 6.2916 0.0001
363 1 5.6251 5.6250 -5.6250 0.000119 0.000024 -0.000037 5.0533 6.2895 7.0878
ITEM: TIMESTEP
10
ITEM: NUMBER OF ATOMS
363
ITEM: BOX BOUNDS pp pp pp
-15.000000 15.000000
-15.000000 15.000000
-15.000000 15.000000
ITEM: ATOMS id type xu yu zu vx vy vz fx fy fz
1 1 -13.1258 -13.1253 -13.1251 -0.000234 -0.000051 -0.000016 -5.0310 -0.0151 -0.0254
2 1 -13.1255 -13.1252 -9.3755 -0.000180 -0.000045 -0.000096 -5.0331 -0.0144 0.0391
3 1 -13.1256 -13.1257 -5.6248 -0.000187 -0.000124 0.000032 -5.0217 0.0218 0.0003
4 1 -13.1255 -13.1248 -1.8741 -0.000183 0.000044 0.000161 -5.0128 -0.0039 -0.0497
5 1 -13.1247 -13.1250 1.8751 -0.000030 -0.000001 0.000011 -5.0653 -0.0094 0.0526
6 1 -13.1252 -13.1251 5.6256 -0.000116 -0.000026 0.000107 -5.0954 0.0459 -0.0212