ITEM: TIMESTEP
0
ITEM: NUMBER OF ATOMS
363
ITEM: BOX BOUNDS pp pp pp
-15.000000 15.000000
-15.000000 15.000000
-15.000000 15.000000
ITEM: ATOMS id type xu yu zu vx vy vz fx fy fz
1 1 -13.2100 -14.0740 -14.6911 -16.997551 -189.809571 -313.211295 0.0000 0.0000 0.0000
2 1 -14.3384 -13.9856 -10.2170 -242.672552 -172.122867 -168.394712 0.0000 0.0000 0.0000
3 1 -12.7707 -12.7259 -6.5887 70.854819 79.822600 -192.738885 0.0000 0.0000 0.0000
4 1 -14.4319 -10.1001 -2.3318 -261.370122 604.977463 -91.354909 0.0000 0.0000 0.0000
5 1 -10.8380 -14.6363 0.8677 457.400417 -302.254331 -201.456261 0.0000 0.0000 0.0000
6 1 -12.8774 -13.7327 6.0676 49.514505 -121.532479 88.526065 0.0000 0.0000 0.0000
7 1 -11.7932 -12.2689 8.0634 266.366226 171.220151 -262.310425 0.0000 0.0000 0.0000
8 1 -11.5100 -13.4985 12.6015 322.997942 -74.707103 -104.700624 0.0000 0.0000 0.0000
9 1 -13.4616 -9.2792 -14.1571 -67.324289 19.167955 -206.426608 0.0000 0.0000 0.0000
10 1 -13.6449 -8.2853 -9.0722 -103.979648 217.931117 60.555146 0.0000 0.0000 0.0000
11 1 -12.4704 -9.3305 -4.0488 130.922879 8.906385 315.233374 0.0000 0.0000 0.0000
12 1 -11.8682 -8.5849 -1.6116 251.360330 158.021636 52.684469 0.0000 0.0000 0.0000
13 1 -10.4577 -9.3910 3.0178 533.467319 -3.205348 228.553910 0.0000 0.0000 0.0000
14 1 -14.3185 -7.4707 4.9551 -238.705372 380.864486 -133.985760 0.0000 0.0000 0.0000
15 1 -10.8207 -8.7036 9.7369 460.858818 134.280546 72.372520 0.0000 0.0000 0.0000
16 1 -11.6637 -8.2750 12.9338 292.266162 220.003274 -38.242979 0.0000 0.0000 0.0000
17 1 -13.2874 -5.6276 -13.9000 -32.476270 -0.523678 -155.006093 0.0000 0.0000 0.0000
18 1 -12.6505 -5.4907 -10.4759 94.891341 26.859033 -220.179883 0.0000 0.0000 0.0000
19 1 -13.2999 -5.3219 -5.5028 -34.986095 60.610480 24.449233 0.0000 0.0000 0.0000
20 1 -13.5266 -6.7315 0.4718 -80.318875 -221.304019 469.359675 0.0000 0.0000 0.0000
21 1 -10.5652 -5.6001 2.3880 511.967613 4.979209 102.591862 0.0000 0.0000 0.0000
22 1 14.6557 -7.9782 6.9768 -443.854543 -470.643814 270.353336 0.0000 0.0000 0.0000
23 1 -13.2910 -4.0610 10.5531 -33.194329 312.805187 235.615777 0.0000 0.0000 0.0000
24 1 -12.0239 -6.0813 10.7675 220.219132 -91.257540 -471.506002 0.0000 0.0000 0.0000
25 1 -12.8558 -1.1617 -13.2913 53.845764 142.663757 -33.267568 0.0000 0.0000 0.0000
26 1 -9.3212 -1.3601 -11.1324 760.751589 102.989604 -351.473027 0.0000 0.0000 0.0000
27 1 -10.3962 -2.7993 -7.7189 545.761363 -184.854379 -418.784927 0.0000 0.0000 0.0000
28 1 14.8149 -2.3538 -1.0184 -412.028213 -95.759323 171.327692 0.0000 0.0000 0.0000
29 1 -13.8503 -1.3440 3.8993 -145.068830 106.197626 404.859471 0.0000 0.0000 0.0000
30 1 -13.7142 -3.2470 3.8033 -117.830455 -274.394379 -364.337725 0.0000 0.0000 0.0000
31 1 -12.9073 0.3268 10.6051 43.549562 440.360540 246.023136 0.0000 0.0000 0.0000
32 1 -13.2944 -1.5296 14.8554 -33.883437 69.073623 346.078065 0.0000 0.0000 0.0000
33 1 -10.8113 2.0497 -11.0197 462.744256 34.932675 421.069730 0.0000 0.0000 0.0000
34 1 -13.3485 1.2069 -12.0845 -44.690846 -133.622107 -541.901042 0.0000 0.0000 0.0000
35 1 -12.8159 -0.5668 -4.6873 61.829312 -488.357387 187.548438 0.0000 0.0000 0.0000
36 1 -12.7267 2.5448 -1.4914 79.666543 133.962210 76.722824 0.0000 0.0000 0.0000
37 1 14.1065 -0.1586 3.5615 -553.709608 -406.710730 337.296892 0.0000 0.0000 0.0000
38 1 -13.6828 3.0319 4.0221 -111.552154 231.379074 -320.580178 0.0000 0.0000 0.0000
39 1 -12.7521 2.5930 8.1885 74.577038 143.593563 -237.300335 0.0000 0.0000 0.0000
40 1 -13.2489 -0.4008 13.1433 -24.776949 -455.158852 3.661766 0.0000 0.0000 0.0000
41 1 -13.4242 3.4523 -14.1769 -59.840369 -434.537905 -210.380135 0.0000 0.0000 0.0000
42 1 -13.3236 6.6191 -10.8710 -39.714995 198.824790 -299.204154 0.0000 0.0000 0.0000
43 1 -13.6021 5.7485 -7.1202 -95.418912 24.704775 -299.049159 0.0000 0.0000 0.0000
44 1 -12.5309 4.1402 -2.5060 118.813418 -296.950085 -126.201841 0.0000 0.0000 0.0000
45 1 -12.9078 4.4646 -0.2184 43.434204 -232.078056 -418.682982 0.0000 0.0000 0.0000
46 1 -14.5498 6.5175 5.5623 -284.969548 178.495410 -12.549392 0.0000 0.0000 0.0000
47 1 14.6457 7.1843 8.7569 -445.861945 311.854212 -123.619280 0.0000 0.0000 0.0000
48 1 -11.3817 4.8763 12.2130 348.651016 -149.743227 -182.408086 0.0000 0.0000 0.0000
49 1 -13.2413 11.3060 -11.2007 -23.260962 386.195124 384.868550 0.0000 0.0000 0.0000
50 1 -13.9655 8.9932 -8.6841 -168.106371 -76.361034 138.171473 0.0000 0.0000 0.0000
51 1 -11.7039 10.6487 -4.5237 284.219796 254.735525 220.268950 0.0000 0.0000 0.0000
52 1 -10.2509 8.4478 -2.0733 574.820012 -185.435651 -39.661970 0.0000 0.0000 0.0000
53 1 14.4130 9.0823 3.5054 -492.398213 -58.542410 326.085864 0.0000 0.0000 0.0000
54 1 -11.4901 8.1127 6.8215 326.984963 -252.466498 239.307465 0.0000 0.0000 0.0000
55 1 -13.5026 6.7960 10.0156 -75.524686 -515.805918 128.118910 0.0000 0.0000 0.0000
56 1 -13.1213 8.8242 -14.0356 0.735056 -110.156505 567.877207 0.0000 0.0000 0.0000
57 1 12.9186 -14.8147 -14.5593 -791.283228 412.069212 -286.861231 0.0000 0.0000 0.0000
58 1 -12.1406 14.2557 -7.7354 196.872877 226.132019 327.910794 0.0000 0.0000 0.0000
59 1 -12.8595 12.0141 -5.3105 53.101653 -222.177412 62.898822 0.0000 0.0000 0.0000
60 1 -12.1611 12.5780 -3.1909 192.788430 -109.399777 -263.187912 0.0000 0.0000 0.0000
61 1 -14.4645 12.2933 0.0196 -267.897391 -166.349105 -371.072259 0.0000 0.0000 0.0000
62 1 -12.7483 13.3061 5.0341 75.332827 36.223900 -118.187360 0.0000 0.0000 0.0000
63 1 -12.3313 14.4453 8.2905 158.748440 264.061705 -216.894394 0.0000 0.0000 0.0000
64 1 -12.8187 14.4976 14.1566 61.256384 274.528609 206.322924 0.0000 0.0000 0.0000
65 1 -7.0272 -13.0150 -13.2215 469.551719 21.994063 -19.305781 0.0000 0.0000 0.0000
66 1 -11.6226 -13.4610 -10.5760 -449.517567 -67.199838 -240.202880 0.0000 0.0000 0.0000
67 1 -10.8717 -12.4210 -3.9517 -299.342573 140.797190 334.660396 0.0000 0.0000 0.0000
68 1 -7.8478 -13.3849 -1.1478 305.430983 -51.982420 145.434179 0.0000 0.0000 0.0000
69 1 -9.5926 -13.1443 3.2764 -43.517579 -3.852625 280.274583 0.0000 0.0000 0.0000
70 1 -8.7880 -10.9709 6.1985 117.406039 430.814498 114.701652 0.0000 0.0000 0.0000
71 1 -9.6601 -12.1155 7.3745 -57.022018 201.899681 -400.100012 0.0000 0.0000 0.0000
72 1 -7.8518 -12.4817 13.7743 304.636753 128.653122 129.867119 0.0000 0.0000 0.0000
73 1 -7.3978 -10.3771 -13.8872 395.443698 -200.429966 -152.435662 0.0000 0.0000 0.0000
74 1 -7.9411 -10.5720 -6.6638 286.783042 -239.390993 542.231843 0.0000 0.0000 0.0000
75 1 -8.0256 -10.1519 -6.6914 269.877135 -155.370085 -213.283882 0.0000 0.0000 0.0000
76 1 -9.4595 -6.3799 -4.6700 -16.895789 599.028572 -558.996110 0.0000 0.0000 0.0000
77 1 -6.7458 -11.2119 0.8507 525.845686 -367.383595 -204.852019 0.0000 0.0000 0.0000
78 1 -9.1811 -9.1952 5.3299 38.785000 35.965010 -59.022012 0.0000 0.0000 0.0000
79 1 -13.9374 -11.1615 10.0828 -912.471995 -357.304690 141.561407 0.0000 0.0000 0.0000
80 1 -7.2777 -8.7446 14.2927 419.451363 126.085226 233.544518 0.0000 0.0000 0.0000
81 1 -10.0455 -4.8143 -12.9001 -134.100568 162.132441 44.981048 0.0000 0.0000 0.0000
82 1 -8.4787 -4.1274 -9.1503 179.267681 299.521145 44.938523 0.0000 0.0000 0.0000
83 1 -10.4859 -7.0880 -5.4312 -222.180939 -292.596681 38.769651 0.0000 0.0000 0.0000
84 1 -8.5014 -6.6697 -2.1904 174.725071 -208.933766 -63.072015 0.0000 0.0000 0.0000
85 1 -8.9933 -2.7742 1.7140 76.347509 570.161908 -32.203577 0.0000 0.0000 0.0000
86 1 -8.0516 -3.9984 7.0366 264.677563 325.325763 282.317203 0.0000 0.0000 0.0000
87 1 -8.8622 -4.8429 8.3262 102.564028 156.418765 -209.759593 0.0000 0.0000 0.0000
88 1 -12.1791 -5.4465 14.0179 -560.824401 35.708691 178.571032 0.0000 0.0000 0.0000
89 1 -11.8033 -1.0328 -13.6225 -485.664941 168.440451 -99.491889 0.0000 0.0000 0.0000
90 1 -7.4150 -2.2074 -10.3933 392.003364 -66.477507 -203.652706 0.0000 0.0000 0.0000
91 1 -12.4066 -6.5166 -5.9933 -606.329373 -928.314739 -73.657499 0.0000 0.0000 0.0000
92 1 -7.6265 -1.5069 -1.8954 349.691596 73.628452 -4.073186 0.0000 0.0000 0.0000
93 1 -11.6362 -1.9060 0.8685 -452.238812 -6.192106 -201.302384 0.0000 0.0000 0.0000
94 1 -9.5878 -1.0844 5.9413 -42.559498 158.116505 63.267048 0.0000 0.0000 0.0000
95 1 -11.1181 -4.0955 7.2578 -348.619264 -444.097310 -423.430340 0.0000 0.0000 0.0000
96 1 -9.8576 -2.3943 13.3861 -96.522598 -103.867311 52.227852 0.0000 0.0000 0.0000
97 1 -9.5092 -1.3974 -11.3224 -26.836601 -654.486190 360.511449 0.0000 0.0000 0.0000
98 1 -11.5003 1.8755 -8.0151 -425.052285 0.105386 271.975846 0.0000 0.0000 0.0000
99 1 -6.1449 1.5665 -4.8411 646.020579 -61.692509 156.788982 0.0000 0.0000 0.0000
100 1 -10.3663 -0.1845 -2.4944 -198.261576 -411.894327 -123.882495 0.0000 0.0000 0.0000
101 1 -8.8963 -1.6705 3.1479 95.741868 -709.100912 254.589451 0.0000 0.0000 0.0000
102 1 -8.5070 0.1923 6.3782 173.609261 -336.547665 150.637803 0.0000 0.0000 0.0000
103 1 -8.6308 1.6491 7.5985 148.831752 -45.180481 -355.306851 0.0000 0.0000 0.0000
104 1 -10.4765 4.4512 14.8809 -220.290437 515.230199 351.187729 0.0000 0.0000 0.0000
105 1 -8.7506 6.0005 -12.6033 124.883453 75.095877 104.332976 0.0000 0.0000 0.0000
106 1 -8.9926 3.8611 -6.4071 76.485742 -352.787887 593.589202 0.0000 0.0000 0.0000
107 1 -8.5487 5.7941 -5.9149 165.259904 33.829881 -57.979702 0.0000 0.0000 0.0000
108 1 -8.0159 6.3819 -2.2592 271.814701 151.370658 -76.840688 0.0000 0.0000 0.0000
109 1 -10.1942 2.0015 3.3405 -163.847082 -724.700316 293.090326 0.0000 0.0000 0.0000
110 1 -10.4667 5.3522 6.3440 -218.337525 -54.561314 143.804480 0.0000 0.0000 0.0000
111 1 -12.3566 4.4774 8.2750 -596.319027 -229.526908 -219.999837 0.0000 0.0000 0.0000
112 1 -8.7742 7.1245 14.0870 120.156714 299.904084 192.396455 0.0000 0.0000 0.0000
113 1 -8.5184 8.7587 -14.2299 171.311637 -123.257939 -220.979082 0.0000 0.0000 0.0000
114 1 -8.2004 7.9663 -10.3821 234.922812 -281.736598 -201.423283 0.0000 0.0000 0.0000
115 1 -10.1286 9.2098 -4.5828 -150.721829 -33.040747 208.437700 0.0000 0.0000 0.0000
116 1 -8.7733 11.4049 -3.2078 120.331794 405.982161 -266.568094 0.0000 0.0000 0.0000
117 1 -9.8834 7.2698 1.1166 -101.670674 -421.040563 -151.685188 0.0000 0.0000 0.0000
118 1 -8.6500 8.2254 6.0460 144.994495 -229.924199 84.198784 0.0000 0.0000 0.0000
119 1 -8.2820 10.0138 11.5211 218.598523 127.767643 429.214807 0.0000 0.0000 0.0000
120 1 -10.2380 10.0071 13.9588 -172.604703 126.424849 166.754279 0.0000 0.0000 0.0000
121 1 -10.3261 12.1002 -12.6662 -190.226300 -204.965973 91.750193 0.0000 0.0000 0.0000
122 1 -10.5408 13.6943 -10.9713 -233.166438 113.858442 -319.269715 0.0000 0.0000 0.0000
123 1 -7.0002 13.3824 -4.6013 474.955890 51.471330 204.738462 0.0000 0.0000 0.0000
124 1 -8.8154 14.9049 -2.2474 111.917047 355.972693 -74.485846 0.0000 0.0000 0.0000
125 1 -6.8375 -14.4719 4.1536 507.500707 480.628088 455.712693 0.0000 0.0000 0.0000
126 1 -9.7012 12.8887 6.0805 -65.245624 -47.257977 91.106083 0.0000 0.0000 0.0000
127 1 -8.8297 13.4386 8.2918 109.062250 62.722802 -216.637194 0.0000 0.0000 0.0000
128 1 -10.1450 12.6192 13.7902 -154.005938 -101.164915 133.034682 0.0000 0.0000 0.0000
129 1 -3.1778 -13.0651 13.9670 489.432203 11.975192 -581.592980 0.0000 0.0000 0.0000
130 1 -4.9220 14.8146 -9.7534 140.604494 -412.074747 -75.685320 0.0000 0.0000 0.0000
131 1 -4.8602 -12.6138 -4.9590 152.955786 102.244897 133.199072 0.0000 0.0000 0.0000
132 1 -4.7455 -9.7528 -1.1037 175.903951 674.444046 154.265677 0.0000 0.0000 0.0000
133 1 -5.2959 -13.5746 2.9331 65.814589 -89.913026 211.623461 0.0000 0.0000 0.0000
134 1 -4.3907 -12.7124 4.7498 246.867418 82.519287 -175.049329 0.0000 0.0000 0.0000
135 1 -7.1228 -14.3185 8.8229 -299.553454 -238.694213 -110.414469 0.0000 0.0000 0.0000
136 1 -6.2458 -13.0242 14.2156 -124.150057 20.158601 218.121812 0.0000 0.0000 0.0000
137 1 -4.5339 -10.7964 -11.4971 218.216810 -284.288742 325.584001 0.0000 0.0000 0.0000
138 1 -8.2980 -8.7368 -9.1549 -534.592978 127.644024 44.010490 0.0000 0.0000 0.0000
139 1 -5.3714 -10.7882 -5.7207 50.710962 -282.638311 -19.144256 0.0000 0.0000 0.0000
140 1 -2.9127 -9.9296 -6.6848 542.466134 -110.912611 -961.964596 0.0000 0.0000 0.0000
141 1 -5.4565 -10.5697 1.7786 33.702985 -238.944297 -19.273236 0.0000 0.0000 0.0000
142 1 -5.7689 -9.6174 6.5530 -28.776205 -48.474120 185.603384 0.0000 0.0000 0.0000
143 1 -3.8426 -10.4181 10.7541 356.475755 -208.628014 275.814218 0.0000 0.0000 0.0000
144 1 -5.4561 -10.4856 13.6928 33.785088 -222.111305 113.560459 0.0000 0.0000 0.0000
145 1 -6.5323 -5.7388 -13.5490 -181.451631 -22.754622 -84.802793 0.0000 0.0000 0.0000
146 1 -7.4713 -4.9692 -11.3112 -369.250183 131.152979 -387.240958 0.0000 0.0000 0.0000
147 1 -5.8132 -4.2172 -5.7894 -37.648024 281.560083 -32.885880 0.0000 0.0000 0.0000
148 1 -4.4041 -4.2971 -1.6813 244.179822 265.585043 38.747592 0.0000 0.0000 0.0000
149 1 -7.3400 -9.8209 3.8778 -342.999671 -839.170197 400.562326 0.0000 0.0000 0.0000
150 1 -5.0628 -4.1265 6.8472 112.436273 299.704153 244.445326 0.0000 0.0000 0.0000
151 1 -7.2819 -6.1552 10.1878 -331.376214 -106.045505 162.564318 0.0000 0.0000 0.0000
152 1 -8.6274 -5.2092 11.6758 -600.475407 83.166911 -289.837568 0.0000 0.0000 0.0000
153 1 -2.2520 -3.9014 -12.3567 674.607378 -405.273921 153.657427 0.0000 0.0000 0.0000
154 1 -4.1752 -4.0092 -8.7467 289.959671 -426.839015 125.651680 0.0000 0.0000 0.0000
155 1 -5.8640 -3.5552 -5.5096 -47.804928 -336.042030 23.077023 0.0000 0.0000 0.0000
156 1 -5.3337 -1.6912 -2.1434 58.258909 36.769211 -53.683162 0.0000 0.0000 0.0000
157 1 -8.3673 -2.6018 2.3385 -548.460769 -145.356386 92.702181 0.0000 0.0000 0.0000
158 1 -5.4071 -2.7691 6.2557 43.577844 -178.813986 126.144068 0.0000 0.0000 0.0000
159 1 -6.8219 -3.9064 11.4421 -239.373844 -406.289559 413.419041 0.0000 0.0000 0.0000
160 1 -7.2530 -1.6797 13.4761 -325.594124 39.066575 70.221989 0.0000 0.0000 0.0000
161 1 -2.0784 1.5405 -12.8982 709.316589 -66.905589 45.365540 0.0000 0.0000 0.0000
162 1 -3.1624 3.5216 -10.5275 492.523252 329.328449 -230.497591 0.0000 0.0000 0.0000
163 1 -8.0737 2.1369 -6.2165 -489.735943 52.373451 -118.303723 0.0000 0.0000 0.0000
164 1 -4.3452 1.0511 -1.6183 255.959972 -164.774333 51.342572 0.0000 0.0000 0.0000
165 1 -5.4538 2.9639 0.8764 34.239161 217.786254 -199.724246 0.0000 0.0000 0.0000
166 1 -5.3772 0.6906 6.4020 49.566457 -236.873535 155.403804 0.0000 0.0000 0.0000
167 1 -4.6002 3.0620 7.5464 204.954407 237.402903 -365.724872 0.0000 0.0000 0.0000
168 1 -9.0705 0.6956 11.7504 -689.093412 -235.871005 -274.915486 0.0000 0.0000 0.0000
169 1 -5.1837 6.0092 -12.9470 88.267696 76.832784 35.594201 0.0000 0.0000 0.0000
170 1 -7.0412 5.2664 -9.8130 -283.238443 -71.713968 -87.597574 0.0000 0.0000 0.0000
171 1 -1.8490 5.2882 -2.0140 755.197366 -67.356571 722.197593 0.0000 0.0000 0.0000
172 1 -4.1093 6.2226 -2.6416 303.134666 119.521096 -153.324512 0.0000 0.0000 0.0000
173 1 -7.2187 6.2002 2.0105 -318.739503 115.045757 27.090940 0.0000 0.0000 0.0000
174 1 -3.7874 4.4573 6.9654 367.518638 -233.547349 268.082052 0.0000 0.0000 0.0000
175 1 -7.8984 6.7802 9.5602 -454.689289 231.036556 37.047061 0.0000 0.0000 0.0000
176 1 -4.8140 4.9720 14.6064 162.205769 -130.593687 296.281320 0.0000 0.0000 0.0000
177 1 -5.7626 9.2409 -12.3020 -27.520445 -26.818936 164.594991 0.0000 0.0000 0.0000
178 1 -6.1331 8.2062 -9.2234 -101.613754 -233.761288 30.314886 0.0000 0.0000 0.0000
179 1 -4.7778 7.7680 -4.8579 169.444356 -321.408865 153.426146 0.0000 0.0000 0.0000
180 1 -5.9383 8.1505 -0.7881 -62.650559 -244.908875 217.373159 0.0000 0.0000 0.0000
181 1 -5.2421 11.3508 1.2272 76.585865 395.156966 -129.556658 0.0000 0.0000 0.0000
182 1 -4.1963 9.1614 9.4534 285.749170 -42.715849 765.687787 0.0000 0.0000 0.0000
183 1 -6.8503 8.5423 7.1173 -245.069054 -166.541573 -451.537806 0.0000 0.0000 0.0000
184 1 -7.6787 10.0216 -14.6650 -410.734552 129.318869 442.007445 0.0000 0.0000 0.0000
185 1 -6.5187 11.6593 -14.6677 -178.741828 -293.137997 -308.534234 0.0000 0.0000 0.0000
186 1 -4.9773 14.8907 -8.1184 129.542291 353.130945 251.324494 0.0000 0.0000 0.0000
187 1 -3.1874 12.0834 -4.6980 487.519500 -208.315644 185.406510 0.0000 0.0000 0.0000
188 1 -4.3971 13.6871 -3.4469 245.589361 112.423794 -314.381926 0.0000 0.0000 0.0000
189 1 -6.0741 13.6947 2.4628 -89.816791 113.934386 117.560342 0.0000 0.0000 0.0000
190 1 -4.8205 12.5044 3.5471 160.897300 -124.120037 -415.575304 0.0000 0.0000 0.0000
191 1 -5.5560 -14.4620 6.8579 13.798233 482.590751 -503.412863 0.0000 0.0000 0.0000
192 1 -5.3290 -14.0743 13.0101 59.203853 560.144412 -22.978580 0.0000 0.0000 0.0000
193 1 -1.0365 -14.6258 -14.1803 167.702345 -300.160508 -211.050197 0.0000 0.0000 0.0000
194 1 -2.4531 -13.0563 -9.8014 -115.623960 13.744963 -85.275217 0.0000 0.0000 0.0000
195 1 -2.9849 -12.5953 -3.9723 -221.985385 105.940982 330.547786 0.0000 0.0000 0.0000
196 1 -3.0361 -12.5724 -2.7827 -232.219888 110.510341 -181.542256 0.0000 0.0000 0.0000
197 1 -2.8500 -12.1051 0.6706 -195.005186 203.987373 -240.884535 0.0000 0.0000 0.0000
198 1 0.3033 -11.8613 3.4303 435.667044 252.732949 -438.937229 0.0000 0.0000 0.0000
199 1 -4.1289 -13.7888 8.7608 -450.789262 -132.761617 -122.845565 0.0000 0.0000 0.0000
200 1 -3.4874 -11.8412 12.2397 -322.474646 256.756241 -177.063543 0.0000 0.0000 0.0000
201 1 -1.1234 -9.3973 -10.4645 150.318058 -4.460068 532.094954 0.0000 0.0000 0.0000
202 1 -3.5575 -8.5427 -5.3365 -336.502196 166.455401 807.709398 0.0000 0.0000 0.0000
203 1 -2.1701 -10.9157 -5.1997 -59.023909 -308.141667 85.062583 0.0000 0.0000 0.0000
204 1 -2.3526 -7.8495 -2.3648 -95.523502 305.100613 -97.953134 0.0000 0.0000 0.0000
205 1 -0.7138 -8.4075 3.3775 232.231447 193.503706 300.491461 0.0000 0.0000 0.0000
206 1 -3.0496 -8.6034 3.0955 -234.920975 154.316237 -505.895477 0.0000 0.0000 0.0000
207 1 -3.2706 -11.4108 8.3679 -279.120178 -407.156431 -201.411392 0.0000 0.0000 0.0000
208 1 -1.4223 -9.4556 14.6393 90.537560 -16.127158 302.855143 0.0000 0.0000 0.0000
209 1 -0.9534 -6.0700 -14.6604 184.323363 -89.009606 -307.079877 0.0000 0.0000 0.0000
210 1 -0.0854 -2.9510 -10.6413 357.921715 534.808609 -253.250438 0.0000 0.0000 0.0000
211 1 -3.0764 -7.0571 -3.8987 -240.275103 -286.427917 345.264490 0.0000 0.0000 0.0000
212 1 -3.8291 -4.9386 -3.5298 -390.824622 137.288236 -330.969178 0.0000 0.0000 0.0000
213 1 -2.4011 -4.0098 3.1161 -105.220561 323.048913 248.211043 0.0000 0.0000 0.0000
214 1 -1.9823 -4.0306 4.6521 -21.469151 318.884122 -194.573365 0.0000 0.0000 0.0000
215 1 -2.5081 -6.6337 9.2945 -126.616167 -201.743634 -16.108949 0.0000 0.0000 0.0000
216 1 -2.1615 -2.9957 -14.7551 -57.306673 525.860616 423.974118 0.0000 0.0000 0.0000
217 1 -0.3066 -1.8211 -12.1761 313.675465 10.775056 189.773566 0.0000 0.0000 0.0000
218 1 -2.0656 0.6174 -9.1766 -38.115993 498.475465 39.681155 0.0000 0.0000 0.0000
219 1 -1.7967 -0.4158 -6.5516 15.666116 291.835448 -185.314889 0.0000 0.0000 0.0000
220 1 -3.4524 -2.7631 -0.5365 -315.484518 -177.613083 267.698037 0.0000 0.0000 0.0000
221 1 -3.4868 1.8763 1.5508 -322.361170 750.269418 -64.830036 0.0000 0.0000 0.0000
222 1 -2.7685 -1.5646 4.6452 -178.704991 62.073125 -195.957226 0.0000 0.0000 0.0000
223 1 -1.3020 -3.7516 8.9182 114.596193 -375.320943 -91.357871 0.0000 0.0000 0.0000
224 1 -1.8451 -4.0109 14.9619 5.989799 -427.184212 367.375169 0.0000 0.0000 0.0000
225 1 -1.0570 0.8081 -10.7297 163.597816 -213.379383 479.053126 0.0000 0.0000 0.0000
226 1 0.2234 3.0918 -11.3206 419.676918 243.358610 -389.123072 0.0000 0.0000 0.0000
227 1 -3.2651 2.4156 -5.4168 -278.020019 108.117079 41.647668 0.0000 0.0000 0.0000
228 1 -0.9989 4.9922 -2.9973 175.216705 623.442182 -224.454370 0.0000 0.0000 0.0000
229 1 -1.5140 2.8917 2.0480 72.201910 203.344929 34.599814 0.0000 0.0000 0.0000
230 1 1.1286 1.0120 1.8078 600.717567 -172.609937 -763.449585 0.0000 0.0000 0.0000
231 1 -1.6034 1.9674 9.6924 54.325909 18.487814 63.487217 0.0000 0.0000 0.0000
232 1 -3.7782 2.7091 13.7341 -380.641951 166.826733 121.811326 0.0000 0.0000 0.0000
233 1 -0.8275 3.6354 14.8052 209.494654 -397.922290 -413.959978 0.0000 0.0000 0.0000
234 1 -2.2153 7.3197 -9.8213 -68.068821 338.939428 -89.251146 0.0000 0.0000 0.0000
235 1 -3.4509 7.3651 -4.6585 -315.181701 348.014188 193.305588 0.0000 0.0000 0.0000
236 1 -0.3162 5.0481 -1.1476 311.767438 -115.382476 145.488849 0.0000 0.0000 0.0000
237 1 -0.4017 5.2768 1.4136 294.659728 -69.648715 -92.277227 0.0000 0.0000 0.0000
238 1 -2.6210 5.7039 5.0420 -149.209933 15.781503 -116.598157 0.0000 0.0000 0.0000
239 1 -4.5795 2.3148 9.7347 -540.901426 -662.034367 71.931186 0.0000 0.0000 0.0000
240 1 -0.4951 4.2303 14.2357 275.989758 -278.937885 222.144820 0.0000 0.0000 0.0000
241 1 -1.7581 10.6270 -14.9669 23.383903 250.396962 -368.376928 0.0000 0.0000 0.0000
242 1 -2.0272 8.7156 -9.8774 -30.439139 -131.883628 -100.485303 0.0000 0.0000 0.0000
243 1 -1.7370 9.1292 -5.7976 27.607928 -49.154490 -34.522595 0.0000 0.0000 0.0000
244 1 -0.7800 8.1903 -1.3945 219.002971 -236.937601 96.101961 0.0000 0.0000 0.0000
245 1 -2.5628 8.9239 -0.4381 -137.565488 -90.221506 -462.614710 0.0000 0.0000 0.0000
246 1 0.2013 8.8281 6.2553 415.257006 -109.372776 126.064430 0.0000 0.0000 0.0000
247 1 -0.9177 11.3074 10.9098 191.457832 386.472864 306.953636 0.0000 0.0000 0.0000
248 1 -4.2255 7.2455 13.7811 -470.099523 -425.906197 131.212166 0.0000 0.0000 0.0000
249 1 -2.2115 13.8184 -13.4212 -67.303245 138.689487 -59.240738 0.0000 0.0000 0.0000
250 1 -2.5449 14.0510 -7.6950 -133.972429 185.202109 336.000246 0.0000 0.0000 0.0000
251 1 0.0288 13.2883 -7.0146 380.767899 32.666296 -277.928397 0.0000 0.0000 0.0000
252 1 -1.2039 12.2368 -1.2521 134.227980 -177.632837 124.571142 0.0000 0.0000 0.0000
253 1 -1.9922 14.0540 2.9487 -23.437971 185.805923 214.734658 0.0000 0.0000 0.0000
254 1 -1.8291 -14.3773 3.9267 9.179906 499.540221 -339.664687 0.0000 0.0000 0.0000
255 1 -2.4096 12.5745 7.8509 -106.922704 -110.104347 -304.812294 0.0000 0.0000 0.0000
256 1 -1.9646 13.5156 13.7455 -17.918860 78.114488 124.099965 0.0000 0.0000 0.0000
257 1 0.1982 -14.4367 -12.2231 -335.367778 -262.334323 180.376751 0.0000 0.0000 0.0000
258 1 2.5633 -13.6533 -9.0685 137.651846 -105.656892 61.293719 0.0000 0.0000 0.0000
259 1 3.4059 -12.0852 -5.3362 306.177370 207.953733 57.764014 0.0000 0.0000 0.0000
260 1 2.6711 -13.1636 -2.7313 159.217237 -7.713661 -171.264769 0.0000 0.0000 0.0000
261 1 -0.3251 -12.4678 1.7957 -440.023040 131.448369 -15.859863 0.0000 0.0000 0.0000
262 1 1.8634 -14.0863 7.2814 -2.313161 -192.254297 331.276090 0.0000 0.0000 0.0000
263 1 -0.2421 -13.6500 10.1688 -423.413312 -105.003911 158.753327 0.0000 0.0000 0.0000
264 1 -0.1285 -13.4590 -14.2497 -400.709609 -66.791837 525.051098 0.0000 0.0000 0.0000
265 1 2.0000 -9.6661 -10.1455 24.990553 -58.216048 595.897738 0.0000 0.0000 0.0000
266 1 0.7610 -9.3498 -10.1090 -222.792927 5.048066 -146.795823 0.0000 0.0000 0.0000
267 1 0.9551 -7.4969 -6.8622 -183.980728 375.629582 -247.433709 0.0000 0.0000 0.0000
268 1 1.1482 -8.5189 -0.0306 -145.362140 171.217130 368.875599 0.0000 0.0000 0.0000
269 1 3.2491 -8.0161 3.2821 274.824278 271.772595 281.427060 0.0000 0.0000 0.0000
270 1 -0.0906 -7.5978 7.4697 -393.112991 355.434744 368.949030 0.0000 0.0000 0.0000
271 1 0.8711 -8.7252 7.1304 -200.789407 129.965863 -448.917124 0.0000 0.0000 0.0000
272 1 1.7277 -9.9259 12.7681 -29.455166 -110.171808 -71.386147 0.0000 0.0000 0.0000
273 1 4.2049 -7.4853 -14.7893 465.976148 -372.058813 -332.859511 0.0000 0.0000 0.0000
274 1 2.0496 -4.9867 -9.6744 34.918488 127.650347 -59.872832 0.0000 0.0000 0.0000
275 1 0.9360 -7.0570 -5.1452 -187.799609 -286.405579 95.955563 0.0000 0.0000 0.0000
276 1 0.1485 -4.8077 -1.9447 -345.299621 163.460891 -13.936951 0.0000 0.0000 0.0000
277 1 4.6597 -6.0993 2.9852 556.944888 -94.853985 222.045667 0.0000 0.0000 0.0000
278 1 0.7149 -6.1170 5.0992 -232.015237 -98.403313 -105.161934 0.0000 0.0000 0.0000
279 1 0.3215 -5.9785 6.5223 -310.708056 -70.699559 -570.545199 0.0000 0.0000 0.0000
280 1 3.7279 -8.6348 12.1759 370.584703 -601.968903 -189.816904 0.0000 0.0000 0.0000
281 1 3.0287 -2.5396 -13.5659 230.741140 -132.912264 -88.187425 0.0000 0.0000 0.0000
282 1 0.9292 -2.4811 -10.2318 -189.162190 -121.227403 -171.353042 0.0000 0.0000 0.0000
283 1 1.5580 -2.2530 -5.9853 -63.394138 -75.606888 -72.067429 0.0000 0.0000 0.0000
284 1 2.4285 1.0206 -0.7804 110.708951 579.122196 218.925424 0.0000 0.0000 0.0000
285 1 2.7483 -2.5361 3.2670 174.652058 -132.223220 278.399443 0.0000 0.0000 0.0000
286 1 0.6950 -5.7958 7.0923 -235.999920 -784.162236 293.457337 0.0000 0.0000 0.0000
287 1 3.5590 -1.4656 10.0177 336.795326 81.885399 128.542960 0.0000 0.0000 0.0000
288 1 1.5575 -1.2477 12.3689 -63.492991 125.456668 -151.224053 0.0000 0.0000 0.0000
289 1 3.6567 2.4391 -10.8686 356.333116 112.813187 451.275592 0.0000 0.0000 0.0000
290 1 2.6111 3.1183 -9.0727 147.214302 248.665804 60.464390 0.0000 0.0000 0.0000
291 1 2.2014 1.0758 -5.2163 65.277007 -159.835886 81.730186 0.0000 0.0000 0.0000
292 1 1.9780 1.5780 -3.6634 20.609465 -59.401307 -357.672634 0.0000 0.0000 0.0000
293 1 1.1296 0.6439 2.0253 -149.071246 -246.217528 30.063805 0.0000 0.0000 0.0000
294 1 -0.2061 0.9075 5.2324 -416.225502 -193.505914 -78.525329 0.0000 0.0000 0.0000
295 1 2.0414 0.4423 10.7834 33.275772 -286.535662 281.677471 0.0000 0.0000 0.0000
296 1 1.0987 2.2547 13.6067 -155.254235 75.936392 96.339252 0.0000 0.0000 0.0000
297 1 2.8945 5.1940 -11.5145 203.893762 -86.190764 322.109092 0.0000 0.0000 0.0000
298 1 -0.0237 6.2182 -9.5126 -379.733517 118.635550 -27.523686 0.0000 0.0000 0.0000
299 1 1.8152 4.3847 -6.3592 -11.966034 -248.063128 -146.840292 0.0000 0.0000 0.0000
300 1 2.0612 4.4776 -0.4674 37.230047 -229.477579 281.522731 0.0000 0.0000 0.0000
301 1 2.5376 3.1929 1.9779 132.523532 -486.422331 20.586775 0.0000 0.0000 0.0000
302 1 1.9509 4.6270 6.6821 15.185891 -199.590210 211.411147 0.0000 0.0000 0.0000
303 1 1.7986 6.5626 6.5827 -15.282698 187.520401 -558.466795 0.0000 0.0000 0.0000
304 1 0.0027 5.9580 12.8537 -374.468703 66.605931 -54.267402 0.0000 0.0000 0.0000
305 1 0.4530 7.4562 13.4752 -284.393785 -383.764711 -679.951144 0.0000 0.0000 0.0000
306 1 2.9143 10.3110 -9.5052 207.857559 187.205729 -26.031906 0.0000 0.0000 0.0000
307 1 2.5434 9.9153 -5.4137 133.672705 108.056961 42.258032 0.0000 0.0000 0.0000
308 1 0.2884 10.2982 -2.9504 -317.314170 184.648818 -215.080059 0.0000 0.0000 0.0000
309 1 -2.5271 9.7979 2.2522 -880.421947 84.577800 75.437369 0.0000 0.0000 0.0000
310 1 -0.1908 8.6644 4.3689 -413.161672 -142.115171 -251.216995 0.0000 0.0000 0.0000
311 1 3.7524 9.3162 9.6668 375.474177 -11.764143 58.366116 0.0000 0.0000 0.0000
312 1 1.4246 11.3586 12.0253 -90.080214 396.712360 -219.932252 0.0000 0.0000 0.0000
313 1 0.7684 -14.1699 -12.7321 -221.311130 541.017419 78.573498 0.0000 0.0000 0.0000
314 1 1.3688 -14.8594 -8.2485 -101.243811 403.119209 225.290480 0.0000 0.0000 0.0000
315 1 1.5285 14.5509 -3.2768 -69.293947 285.185905 469.647817 0.0000 0.0000 0.0000
316 1 2.1639 12.6028 -1.4897 57.774401 -104.437411 77.061354 0.0000 0.0000 0.0000
317 1 3.8259 12.6120 2.3011 390.174736 -102.594341 85.223343 0.0000 0.0000 0.0000
318 1 1.0224 13.6641 5.7005 -170.529954 107.824913 15.094722 0.0000 0.0000 0.0000
319 1 0.4490 11.2532 9.2022 -285.206072 -374.364180 -34.564611 0.0000 0.0000 0.0000
320 1 1.6797 11.6549 -12.7064 -39.056804 -294.026761 833.719467 0.0000 0.0000 0.0000
321 1 6.0266 -11.8216 -13.5983 80.325175 260.672858 -94.660165 0.0000 0.0000 0.0000
322 1 4.1784 -10.3771 -9.6315 -289.317646 549.579130 -51.309386 0.0000 0.0000 0.0000
323 1 5.8215 -14.6465 -7.2282 39.298266 -304.307251 -320.649886 0.0000 0.0000 0.0000
324 1 6.6521 -11.6212 0.5831 205.421852 300.767402 491.621146 0.0000 0.0000 0.0000
325 1 4.3471 -14.9059 1.4350 -255.582507 -356.184694 -88.004155 0.0000 0.0000 0.0000
326 1 6.1753 -14.6867 5.1708 110.053882 -312.345319 -90.838249 0.0000 0.0000 0.0000
327 1 7.4443 -12.0281 7.2723 363.866668 219.375440 -420.540864 0.0000 0.0000 0.0000
328 1 5.5653 -13.7588 13.0979 -11.946907 -126.751914 -5.412768 0.0000 0.0000 0.0000
329 1 6.9616 -9.8105 -13.8607 267.321206 -87.095246 -147.147376 0.0000 0.0000 0.0000
330 1 6.2111 -10.6067 -8.0647 117.214896 -246.330579 262.054736 0.0000 0.0000 0.0000
331 1 5.0427 -8.8105 -4.6304 -116.452314 112.894675 198.910168 0.0000 0.0000 0.0000
332 1 5.0771 -9.0085 0.1129 -109.586352 73.305649 397.579135 0.0000 0.0000 0.0000
333 1 4.1092 -9.3763 0.7286 -303.154767 -0.258370 -229.271897 0.0000 0.0000 0.0000
334 1 5.1411 -8.7522 6.3140 -96.786446 124.559734 137.803680 0.0000 0.0000 0.0000
335 1 5.4361 -8.7784 8.8791 -37.771594 119.324660 -99.178600 0.0000 0.0000 0.0000
336 1 4.0170 -7.9392 12.2415 -321.590263 287.168646 -176.700156 0.0000 0.0000 0.0000
337 1 7.3692 -5.0325 14.5426 348.834057 118.500431 -466.473552 0.0000 0.0000 0.0000
338 1 5.4240 -6.1214 -11.0215 -40.190694 -99.276157 -329.308268 0.0000 0.0000 0.0000
339 1 3.3673 -6.0557 -6.6584 -451.540067 -86.136533 -206.677357 0.0000 0.0000 0.0000
340 1 5.1999 -5.5033 -2.0548 -85.012356 24.335610 -35.966596 0.0000 0.0000 0.0000
341 1 5.1828 -4.4357 1.5785 -88.443900 237.855672 -59.302042 0.0000 0.0000 0.0000
342 1 7.1242 -3.8283 5.3982 299.844211 359.340234 -45.360973 0.0000 0.0000 0.0000
343 1 9.5115 -4.3989 7.7501 777.290619 245.225226 -324.984966 0.0000 0.0000 0.0000
344 1 4.7316 -6.0502 12.3636 -178.679178 -85.035641 -152.279531 0.0000 0.0000 0.0000
345 1 5.5305 -0.6187 -12.8721 -18.895153 251.262678 50.572803 0.0000 0.0000 0.0000
346 1 5.7297 -5.0512 -9.7367 20.931087 -635.244445 -72.330285 0.0000 0.0000 0.0000
347 1 4.9567 -2.8243 -4.9390 -133.669515 -189.859834 137.191568 0.0000 0.0000 0.0000
348 1 6.0925 -0.6290 -0.5713 93.501655 249.203323 260.745087 0.0000 0.0000 0.0000
349 1 6.9131 -0.5192 1.7731 257.619022 271.155369 -20.376217 0.0000 0.0000 0.0000
350 1 4.7175 -0.6327 6.1005 -181.505806 248.465124 95.094529 0.0000 0.0000 0.0000
351 1 5.5044 -3.2659 7.9209 -24.116027 -278.170922 -290.814254 0.0000 0.0000 0.0000
352 1 7.3501 -2.5338 13.1818 345.024312 -131.761308 11.360374 0.0000 0.0000 0.0000
353 1 4.6568 1.5788 12.3993 -193.634869 -59.235591 -895.136929 0.0000 0.0000 0.0000
354 1 5.5015 2.3883 -9.0678 -24.704374 102.668319 61.440509 0.0000 0.0000 0.0000
355 1 1.3003 0.4338 -4.8028 -864.939377 -288.233129 164.438344 0.0000 0.0000 0.0000