ITEM: TIMESTEP
0
ITEM: NUMBER OF ATOMS
363
ITEM: BOX BOUNDS pp pp pp
-15.000000 15.000000
-15.000000 15.000000
-15.000000 15.000000
ITEM: ATOMS id type xu yu zu vx vy vz fx fy fz
1 1 -13.1250 -13.1250 -13.1250 -0.000077 0.000027 -0.000002 -5.0533 -0.0010 0.0014
2 1 -13.1249 -13.1250 -9.3750 0.000120 0.000056 -0.000008 -5.0579 -0.0023 0.0005
3 1 -13.1249 -13.1250 -5.6250 0.000123 -0.000031 -0.000002 -5.0586 0.0006 -0.0032
4 1 -13.1249 -13.1250 -1.8751 0.000149 0.000040 -0.000172 -5.0586 -0.0019 0.0053
5 1 -13.1249 -13.1250 1.8750 0.000121 0.000060 -0.000025 -5.0595 -0.0014 -0.0019
6 1 -13.1250 -13.1250 5.6250 0.000037 0.000079 0.000021 -5.0565 -0.0033 -0.0043
7 1 -13.1250 -13.1250 9.3749 -0.000055 -0.000082 -0.000159 -5.0523 0.0020 0.0071
8 1 -13.1251 -13.1250 13.1250 -0.000174 -0.000074 0.000075 -5.0528 0.0013 -0.0053
9 1 -13.1250 -9.3750 -13.1250 -0.000072 0.000029 -0.000034 -5.0526 -0.0020 -0.0005
10 1 -13.1250 -9.3750 -9.3750 0.000013 0.000025 -0.000043 -5.0551 0.0015 0.0005
11 1 -13.1250 -9.3750 -5.6250 0.000080 -0.000083 -0.000013 -5.0547 0.0033 0.0017
12 1 -13.1251 -9.3749 -1.8749 -0.000116 0.000139 0.000109 -5.0559 -0.0030 -0.0051
13 1 -13.1250 -9.3750 1.8750 -0.000092 0.000069 -0.000085 -5.0559 0.0001 0.0064
14 1 -13.1250 -9.3750 5.6250 0.000016 -0.000057 0.000085 -5.0546 0.0033 -0.0041
15 1 -13.1250 -9.3750 9.3750 -0.000048 0.000083 0.000018 -5.0574 -0.0029 0.0003
16 1 -13.1250 -9.3750 13.1250 -0.000007 -0.000047 -0.000051 -5.0539 0.0022 0.0013
17 1 -13.1250 -5.6250 -13.1250 0.000065 -0.000084 0.000032 -5.0554 0.0018 -0.0006
18 1 -13.1250 -5.6250 -9.3750 0.000005 0.000072 0.000027 -5.0555 -0.0020 0.0008
19 1 -13.1250 -5.6250 -5.6250 -0.000042 0.000074 0.000061 -5.0579 -0.0024 -0.0036
20 1 -13.1250 -5.6250 -1.8751 0.000003 0.000048 -0.000110 -5.0526 0.0012 0.0085
21 1 -13.1251 -5.6250 1.8751 -0.000214 0.000080 0.000211 -5.0514 -0.0013 -0.0111
22 1 -13.1250 -5.6250 5.6249 -0.000024 -0.000001 -0.000102 -5.0566 -0.0015 0.0062
23 1 -13.1251 -5.6250 9.3750 -0.000123 0.000067 -0.000057 -5.0530 -0.0027 0.0001
24 1 -13.1250 -5.6249 13.1250 -0.000090 0.000102 -0.000005 -5.0563 -0.0030 0.0000
25 1 -13.1251 -1.8750 -13.1250 -0.000128 -0.000073 -0.000048 -5.0530 0.0024 0.0021
26 1 -13.1249 -1.8750 -9.3750 0.000141 0.000000 0.000075 -5.0553 0.0025 -0.0027
27 1 -13.1250 -1.8750 -5.6250 -0.000038 0.000092 0.000040 -5.0568 -0.0017 -0.0002
28 1 -13.1250 -1.8750 -1.8750 -0.000091 0.000020 -0.000007 -5.0525 0.0001 0.0034
29 1 -13.1250 -1.8750 1.8751 0.000027 0.000004 0.000133 -5.0541 0.0029 -0.0064
30 1 -13.1250 -1.8750 5.6250 -0.000010 -0.000017 -0.000092 -5.0555 0.0016 0.0061
31 1 -13.1250 -1.8751 9.3750 0.000042 -0.000102 0.000023 -5.0561 0.0036 -0.0035
32 1 -13.1250 -1.8750 13.1250 -0.000015 0.000059 -0.000054 -5.0570 0.0009 0.0013
33 1 -13.1251 1.8750 -13.1250 -0.000143 0.000086 0.000009 -5.0523 -0.0061 0.0013
34 1 -13.1250 1.8750 -9.3750 0.000081 0.000066 0.000096 -5.0584 0.0007 -0.0032
35 1 -13.1250 1.8750 -5.6250 0.000005 -0.000000 -0.000021 -5.0552 0.0005 0.0005
36 1 -13.1250 1.8750 -1.8751 -0.000097 0.000006 -0.000108 -5.0532 -0.0005 0.0012
37 1 -13.1250 1.8750 1.8749 0.000061 0.000092 -0.000104 -5.0566 -0.0065 0.0033
38 1 -13.1249 1.8750 5.6250 0.000188 0.000057 0.000089 -5.0600 -0.0040 -0.0032
39 1 -13.1250 1.8750 9.3750 -0.000016 -0.000059 0.000089 -5.0555 0.0001 -0.0015
40 1 -13.1250 1.8750 13.1250 0.000089 0.000045 -0.000018 -5.0527 0.0001 0.0025
41 1 -13.1250 5.6250 -13.1250 0.000028 -0.000091 -0.000054 -5.0550 0.0037 0.0014
42 1 -13.1250 5.6251 -9.3750 0.000082 0.000153 -0.000078 -5.0566 -0.0050 0.0008
43 1 -13.1250 5.6250 -5.6250 0.000037 -0.000067 -0.000027 -5.0557 0.0031 0.0008
44 1 -13.1250 5.6250 -1.8750 -0.000064 -0.000024 0.000083 -5.0540 -0.0006 -0.0076
45 1 -13.1251 5.6249 1.8749 -0.000116 -0.000182 -0.000244 -5.0541 0.0090 0.0123
46 1 -13.1250 5.6250 5.6251 -0.000021 -0.000090 0.000127 -5.0536 0.0050 -0.0097
47 1 -13.1251 5.6250 9.3750 -0.000202 -0.000001 -0.000057 -5.0488 -0.0013 0.0049
48 1 -13.1250 5.6250 13.1250 -0.000070 0.000029 0.000043 -5.0532 0.0018 -0.0035
49 1 -13.1249 9.3750 -13.1250 0.000151 -0.000039 -0.000037 -5.0603 -0.0010 0.0028
50 1 -13.1250 9.3750 -9.3750 -0.000085 -0.000065 0.000094 -5.0548 0.0040 -0.0016
51 1 -13.1251 9.3750 -5.6249 -0.000143 0.000048 0.000113 -5.0514 -0.0017 -0.0031
52 1 -13.1250 9.3750 -1.8750 -0.000001 -0.000094 -0.000072 -5.0538 -0.0006 0.0043
53 1 -13.1249 9.3750 1.8750 0.000105 0.000063 -0.000014 -5.0575 -0.0059 -0.0014
54 1 -13.1251 9.3750 5.6250 -0.000109 0.000036 -0.000037 -5.0554 -0.0026 0.0025
55 1 -13.1250 9.3750 9.3750 -0.000084 -0.000017 0.000090 -5.0530 -0.0018 -0.0039
56 1 -13.1250 9.3751 13.1250 0.000030 0.000105 -0.000017 -5.0566 -0.0034 0.0017
57 1 -13.1250 13.1250 -13.1250 0.000028 -0.000034 -0.000054 -5.0515 0.0011 -0.0020
58 1 -13.1250 13.1250 -9.3750 -0.000104 -0.000051 -0.000092 -5.0527 0.0014 0.0020
59 1 -13.1250 13.1250 -5.6250 -0.000000 0.000060 -0.000011 -5.0537 -0.0015 -0.0023
60 1 -13.1250 13.1249 -1.8750 -0.000055 -0.000163 -0.000045 -5.0532 0.0045 0.0043
61 1 -13.1250 13.1250 1.8751 -0.000098 -0.000032 0.000159 -5.0522 0.0034 -0.0038
62 1 -13.1251 13.1250 5.6251 -0.000124 0.000016 0.000124 -5.0540 0.0019 -0.0032
63 1 -13.1251 13.1249 9.3749 -0.000154 -0.000127 -0.000110 -5.0509 0.0025 0.0038
64 1 -13.1250 13.1250 13.1249 0.000002 -0.000027 -0.000115 -5.0537 0.0016 0.0007
65 1 -9.3750 -13.1250 -13.1250 0.000044 0.000080 0.000072 0.1960 -0.0044 -0.0042
66 1 -9.3750 -13.1250 -9.3750 -0.000045 -0.000052 -0.000097 0.2041 0.0061 0.0039
67 1 -9.3750 -13.1250 -5.6250 -0.000060 -0.000059 -0.000036 0.2080 0.0035 -0.0026
68 1 -9.3750 -13.1249 -1.8751 -0.000057 0.000144 -0.000111 0.2042 -0.0081 0.0011
69 1 -9.3751 -13.1250 1.8749 -0.000128 0.000014 -0.000110 0.2053 0.0021 0.0012
70 1 -9.3750 -13.1250 5.6250 -0.000033 -0.000091 -0.000024 0.2040 0.0007 -0.0003
71 1 -9.3749 -13.1250 9.3750 0.000103 0.000002 0.000051 0.1995 -0.0035 -0.0024
72 1 -9.3750 -13.1251 13.1250 -0.000005 -0.000155 -0.000022 0.2002 0.0024 0.0029
73 1 -9.3750 -9.3750 -13.1250 0.000094 -0.000028 -0.000071 0.1981 0.0030 0.0026
74 1 -9.3750 -9.3749 -9.3750 0.000029 0.000144 -0.000036 0.2003 -0.0062 -0.0013
75 1 -9.3750 -9.3750 -5.6250 0.000095 0.000062 -0.000070 0.1997 -0.0037 0.0005
76 1 -9.3751 -9.3750 -1.8750 -0.000115 -0.000079 -0.000055 0.2023 0.0036 -0.0025
77 1 -9.3751 -9.3750 1.8749 -0.000112 0.000096 -0.000158 0.2038 -0.0044 0.0062
78 1 -9.3750 -9.3750 5.6251 0.000045 -0.000016 0.000110 0.1995 -0.0006 -0.0087
79 1 -9.3751 -9.3750 9.3749 -0.000157 -0.000075 -0.000113 0.2031 0.0030 0.0067
80 1 -9.3750 -9.3750 13.1250 0.000051 -0.000097 0.000059 0.2002 -0.0022 -0.0052
81 1 -9.3750 -5.6250 -13.1250 0.000032 0.000033 0.000008 0.1977 -0.0012 -0.0045
82 1 -9.3750 -5.6250 -9.3750 0.000003 -0.000023 -0.000063 0.1975 0.0037 0.0021
83 1 -9.3751 -5.6250 -5.6250 -0.000166 -0.000034 -0.000005 0.2056 0.0017 0.0015
84 1 -9.3749 -5.6250 -1.8749 0.000124 -0.000075 0.000146 0.1959 0.0030 -0.0046
85 1 -9.3750 -5.6250 1.8750 0.000044 -0.000085 0.000017 0.1914 0.0074 0.0049
86 1 -9.3751 -5.6250 5.6251 -0.000104 0.000026 0.000160 0.2041 -0.0015 -0.0088
87 1 -9.3750 -5.6250 9.3749 0.000019 0.000013 -0.000219 0.1994 -0.0041 0.0068
88 1 -9.3751 -5.6251 13.1249 -0.000125 -0.000141 -0.000185 0.2054 0.0040 0.0021
89 1 -9.3750 -1.8750 -13.1251 0.000031 0.000004 -0.000128 0.1988 0.0018 0.0040
90 1 -9.3749 -1.8750 -9.3750 0.000109 0.000019 -0.000032 0.2004 -0.0022 0.0003
91 1 -9.3751 -1.8750 -5.6250 -0.000105 -0.000017 0.000086 0.2058 -0.0025 -0.0001
92 1 -9.3750 -1.8749 -1.8749 0.000080 0.000113 0.000183 0.1977 -0.0014 -0.0046
93 1 -9.3750 -1.8749 1.8750 0.000071 0.000148 -0.000002 0.1989 -0.0059 0.0014
94 1 -9.3750 -1.8750 5.6249 -0.000008 -0.000024 -0.000104 0.1997 0.0018 0.0040
95 1 -9.3750 -1.8751 9.3750 -0.000019 -0.000130 0.000030 0.2008 0.0017 -0.0021
96 1 -9.3751 -1.8750 13.1250 -0.000106 0.000074 0.000024 0.2069 -0.0063 -0.0025
97 1 -9.3750 1.8750 -13.1250 0.000059 0.000066 -0.000085 0.1937 -0.0001 0.0000
98 1 -9.3750 1.8750 -9.3751 -0.000095 -0.000072 -0.000189 0.2045 0.0025 0.0035
99 1 -9.3750 1.8749 -5.6250 0.000009 -0.000115 -0.000040 0.2004 0.0016 -0.0019
100 1 -9.3750 1.8751 -1.8750 0.000035 0.000201 0.000028 0.1970 -0.0044 -0.0021
101 1 -9.3750 1.8750 1.8750 -0.000021 0.000029 -0.000019 0.2016 0.0023 -0.0014
102 1 -9.3751 1.8750 5.6249 -0.000107 0.000027 -0.000152 0.2072 -0.0022 0.0011
103 1 -9.3750 1.8749 9.3749 -0.000008 -0.000160 -0.000198 0.1999 0.0025 0.0041
104 1 -9.3749 1.8750 13.1250 0.000201 -0.000074 0.000030 0.1965 0.0059 -0.0063
105 1 -9.3750 5.6251 -13.1251 0.000040 0.000101 -0.000191 0.1992 -0.0047 0.0111
106 1 -9.3750 5.6250 -9.3749 -0.000002 -0.000011 0.000132 0.2019 -0.0015 -0.0056
107 1 -9.3750 5.6250 -5.6249 0.000003 -0.000091 0.000101 0.2011 0.0030 -0.0015
108 1 -9.3750 5.6250 -1.8750 0.000010 -0.000008 -0.000042 0.1994 0.0067 0.0015
109 1 -9.3750 5.6250 1.8750 -0.000023 0.000044 -0.000096 0.2000 -0.0023 -0.0005
110 1 -9.3750 5.6250 5.6249 0.000064 -0.000046 -0.000178 0.1991 0.0034 0.0038
111 1 -9.3749 5.6250 9.3750 0.000190 -0.000029 -0.000008 0.1911 -0.0027 -0.0004
112 1 -9.3750 5.6251 13.1251 0.000059 0.000117 0.000123 0.1942 -0.0060 -0.0075
113 1 -9.3751 9.3749 -13.1250 -0.000152 -0.000145 0.000004 0.2056 0.0052 0.0002
114 1 -9.3750 9.3750 -9.3750 -0.000041 -0.000016 -0.000003 0.2003 0.0022 -0.0035
115 1 -9.3750 9.3751 -5.6251 0.000100 0.000112 -0.000196 0.1906 -0.0052 0.0060
116 1 -9.3750 9.3751 -1.8750 0.000076 0.000149 -0.000010 0.1946 -0.0069 -0.0053
117 1 -9.3750 9.3750 1.8749 -0.000052 -0.000091 -0.000105 0.2043 0.0044 0.0032
118 1 -9.3750 9.3750 5.6250 -0.000093 0.000072 -0.000002 0.2007 -0.0049 -0.0010
119 1 -9.3750 9.3750 9.3750 0.000040 -0.000038 0.000035 0.1966 -0.0018 -0.0012
120 1 -9.3750 9.3750 13.1250 -0.000044 -0.000043 0.000001 0.2021 0.0028 0.0005
121 1 -9.3749 13.1250 -13.1250 0.000225 -0.000074 -0.000059 0.1922 0.0013 0.0004
122 1 -9.3750 13.1250 -9.3751 0.000067 0.000098 -0.000178 0.1953 -0.0044 0.0054
123 1 -9.3750 13.1250 -5.6250 0.000081 0.000022 0.000032 0.2006 0.0002 -0.0024
124 1 -9.3750 13.1249 -1.8750 0.000074 -0.000105 0.000091 0.1970 0.0089 -0.0010
125 1 -9.3750 13.1250 1.8750 0.000093 0.000044 0.000066 0.1953 -0.0026 -0.0016
126 1 -9.3750 13.1249 5.6250 -0.000041 -0.000102 -0.000061 0.1981 0.0030 0.0046
127 1 -9.3749 13.1249 9.3750 0.000110 -0.000135 0.000073 0.1947 0.0040 -0.0017
128 1 -9.3750 13.1250 13.1250 0.000079 -0.000043 0.000094 0.2006 -0.0021 -0.0026
129 1 -5.6250 -13.1250 -13.1251 -0.000085 0.000016 -0.000188 0.0013 -0.0028 0.0077
130 1 -5.6250 -13.1250 -9.3749 -0.000012 -0.000018 0.000136 -0.0009 0.0025 -0.0084
131 1 -5.6249 -13.1250 -5.6250 0.000171 -0.000044 -0.000017 -0.0057 0.0002 0.0027
132 1 -5.6250 -13.1250 -1.8750 -0.000073 0.000016 -0.000019 0.0016 -0.0029 -0.0011
133 1 -5.6251 -13.1251 1.8750 -0.000107 -0.000145 -0.000086 -0.0003 0.0039 0.0005
134 1 -5.6250 -13.1250 5.6250 0.000083 -0.000064 -0.000097 -0.0025 0.0037 0.0033
135 1 -5.6249 -13.1250 9.3750 0.000163 -0.000053 0.000085 -0.0014 -0.0020 -0.0055
136 1 -5.6249 -13.1250 13.1250 0.000147 0.000026 -0.000043 -0.0091 -0.0032 -0.0007
137 1 -5.6249 -9.3750 -13.1250 0.000105 0.000017 0.000074 -0.0024 -0.0020 0.0023
138 1 -5.6250 -9.3750 -9.3750 0.000024 0.000040 0.000042 0.0002 -0.0016 0.0033
139 1 -5.6250 -9.3750 -5.6249 0.000016 -0.000054 0.000194 0.0012 0.0037 -0.0073
140 1 -5.6250 -9.3751 -1.8750 0.000005 -0.000146 -0.000095 -0.0015 0.0060 0.0081
141 1 -5.6250 -9.3750 1.8750 0.000055 -0.000025 0.000073 -0.0051 -0.0026 -0.0050
142 1 -5.6250 -9.3750 5.6250 -0.000024 0.000042 -0.000048 -0.0017 -0.0012 0.0056
143 1 -5.6250 -9.3751 9.3751 -0.000081 -0.000133 0.000143 -0.0001 0.0035 -0.0017
144 1 -5.6250 -9.3750 13.1251 0.000057 -0.000068 0.000198 -0.0023 0.0033 -0.0023
145 1 -5.6251 -5.6250 -13.1250 -0.000174 -0.000099 -0.000095 0.0060 0.0029 0.0035
146 1 -5.6251 -5.6250 -9.3750 -0.000173 0.000010 0.000032 0.0066 -0.0036 -0.0023
147 1 -5.6250 -5.6249 -5.6250 0.000020 0.000150 0.000029 -0.0039 -0.0050 -0.0001
148 1 -5.6250 -5.6250 -1.8750 -0.000055 0.000044 0.000021 0.0050 -0.0054 0.0045
149 1 -5.6251 -5.6250 1.8751 -0.000212 -0.000037 0.000243 0.0095 0.0002 -0.0078
150 1 -5.6250 -5.6250 5.6250 0.000027 0.000051 -0.000007 -0.0038 -0.0003 0.0018
151 1 -5.6250 -5.6250 9.3749 0.000065 0.000018 -0.000140 -0.0007 -0.0055 0.0044
152 1 -5.6249 -5.6250 13.1250 0.000123 0.000028 -0.000001 -0.0059 -0.0022 -0.0044
153 1 -5.6250 -1.8750 -13.1249 0.000083 -0.000023 0.000157 -0.0014 -0.0001 -0.0014
154 1 -5.6250 -1.8751 -9.3750 0.000023 -0.000211 0.000098 0.0036 0.0064 0.0003
155 1 -5.6249 -1.8750 -5.6250 0.000131 0.000057 0.000033 -0.0060 0.0027 0.0010
156 1 -5.6250 -1.8750 -1.8750 0.000073 -0.000073 0.000026 -0.0025 0.0026 0.0012
157 1 -5.6250 -1.8750 1.8750 0.000004 -0.000030 0.000098 0.0022 0.0003 -0.0014
158 1 -5.6250 -1.8750 5.6250 -0.000070 0.000023 0.000079 0.0043 0.0006 -0.0018
159 1 -5.6250 -1.8751 9.3750 -0.000073 -0.000134 -0.000070 0.0002 0.0010 0.0056
160 1 -5.6249 -1.8750 13.1250 0.000172 -0.000011 0.000089 -0.0084 0.0026 -0.0012
161 1 -5.6251 1.8750 -13.1250 -0.000120 0.000052 0.000040 0.0058 -0.0025 0.0001
162 1 -5.6250 1.8750 -9.3750 -0.000029 -0.000024 0.000093 0.0000 -0.0024 -0.0006
163 1 -5.6250 1.8750 -5.6250 -0.000013 0.000069 0.000080 0.0019 -0.0018 0.0018
164 1 -5.6250 1.8750 -1.8749 -0.000039 -0.000027 0.000143 0.0014 0.0007 -0.0034
165 1 -5.6250 1.8750 1.8750 -0.000057 0.000004 -0.000006 -0.0004 -0.0034 0.0014
166 1 -5.6250 1.8750 5.6250 -0.000029 0.000015 -0.000066 -0.0007 -0.0016 -0.0001
167 1 -5.6250 1.8749 9.3749 -0.000026 -0.000205 -0.000113 0.0021 0.0035 0.0024
168 1 -5.6250 1.8750 13.1250 0.000038 0.000090 -0.000019 0.0038 -0.0032 -0.0007
169 1 -5.6250 5.6250 -13.1250 -0.000045 -0.000012 -0.000068 0.0027 0.0030 0.0009
170 1 -5.6250 5.6250 -9.3750 -0.000020 0.000039 -0.000079 0.0012 -0.0007 0.0044
171 1 -5.6250 5.6250 -5.6249 -0.000008 -0.000045 0.000178 0.0003 0.0041 -0.0078
172 1 -5.6250 5.6250 -1.8750 0.000014 0.000076 -0.000028 -0.0017 -0.0014 0.0015
173 1 -5.6250 5.6249 1.8749 0.000036 -0.000141 -0.000140 0.0020 0.0028 0.0045
174 1 -5.6250 5.6250 5.6250 0.000041 -0.000090 0.000014 0.0022 0.0031 -0.0049
175 1 -5.6250 5.6250 9.3749 0.000024 -0.000042 -0.000114 0.0044 -0.0009 0.0041
176 1 -5.6251 5.6250 13.1250 -0.000159 -0.000018 -0.000010 0.0056 0.0024 -0.0031
177 1 -5.6251 9.3751 -13.1251 -0.000149 0.000103 -0.000219 0.0030 -0.0060 0.0091
178 1 -5.6250 9.3750 -9.3750 -0.000010 0.000055 -0.000063 0.0002 -0.0001 -0.0029
179 1 -5.6251 9.3750 -5.6250 -0.000221 0.000079 -0.000054 0.0091 -0.0041 0.0020
180 1 -5.6251 9.3750 -1.8750 -0.000189 0.000077 0.000072 0.0070 -0.0009 -0.0046
181 1 -5.6250 9.3750 1.8750 -0.000001 -0.000089 -0.000065 -0.0027 0.0000 0.0041
182 1 -5.6250 9.3750 5.6250 -0.000055 -0.000019 0.000036 0.0007 -0.0008 -0.0030
183 1 -5.6250 9.3750 9.3750 -0.000059 0.000081 -0.000049 0.0040 -0.0046 0.0053
184 1 -5.6250 9.3750 13.1251 -0.000033 0.000011 0.000162 0.0004 -0.0019 -0.0102
185 1 -5.6250 13.1249 -13.1250 -0.000095 -0.000136 -0.000058 0.0072 0.0066 0.0039
186 1 -5.6250 13.1250 -9.3750 -0.000062 0.000065 0.000076 0.0056 -0.0012 -0.0029
187 1 -5.6249 13.1250 -5.6250 0.000141 -0.000021 0.000023 -0.0041 0.0012 0.0005
188 1 -5.6250 13.1250 -1.8750 -0.000010 0.000016 -0.000007 0.0022 0.0012 0.0032
189 1 -5.6250 13.1250 1.8751 -0.000047 -0.000015 0.000145 0.0020 -0.0040 -0.0079
190 1 -5.6250 13.1250 5.6249 -0.000089 0.000027 -0.000168 0.0036 -0.0023 0.0078
191 1 -5.6250 13.1250 9.3750 0.000033 -0.000061 -0.000022 0.0011 0.0028 -0.0022
192 1 -5.6249 13.1250 13.1250 0.000141 -0.000066 0.000015 -0.0055 0.0032 -0.0022
193 1 -1.8751 -13.1250 -13.1251 -0.000112 0.000058 -0.000140 -0.0424 0.0216 0.0082
194 1 -1.8750 -13.1250 -9.3749 -0.000017 0.000039 0.000176 -0.0463 0.0210 -0.0097
195 1 -1.8750 -13.1250 -5.6250 0.000052 -0.000070 -0.000063 -0.0469 0.0272 0.0055
196 1 -1.8750 -13.1250 -1.8750 0.000019 0.000077 0.000018 -0.0506 0.0225 0.0002
197 1 -1.8750 -13.1250 1.8750 -0.000078 -0.000010 0.000098 -0.0470 0.0255 -0.0037
198 1 -1.8750 -13.1250 5.6250 0.000034 -0.000006 -0.000049 -0.0471 0.0219 0.0045
199 1 -1.8749 -13.1249 9.3750 0.000118 0.000125 0.000050 -0.0474 0.0215 -0.0023
200 1 -1.8751 -13.1249 13.1250 -0.000214 0.000153 0.000021 -0.0376 0.0157 -0.0024
201 1 -1.8750 -9.3750 -13.1250 -0.000049 -0.000001 -0.000004 0.0032 0.0018 0.0030
202 1 -1.8750 -9.3750 -9.3749 0.000021 0.000056 0.000109 -0.0026 0.0002 -0.0020
203 1 -1.8750 -9.3750 -5.6250 0.000012 0.000004 0.000087 0.0012 0.0022 -0.0028
204 1 -1.8750 -9.3750 -1.8751 0.000040 -0.000013 -0.000110 -0.0044 0.0012 0.0061
205 1 -1.8750 -9.3750 1.8750 -0.000086 -0.000001 0.000042 0.0057 -0.0016 -0.0049
206 1 -1.8751 -9.3751 5.6250 -0.000176 -0.000102 -0.000072 0.0064 0.0008 0.0047
207 1 -1.8750 -9.3749 9.3750 0.000025 0.000233 0.000084 -0.0011 -0.0054 -0.0032
208 1 -1.8750 -9.3750 13.1250 -0.000067 0.000013 0.000045 0.0009 0.0021 -0.0002
209 1 -1.8750 -5.6250 -13.1250 -0.000002 0.000044 0.000000 -0.0042 0.0015 -0.0023
210 1 -1.8750 -5.6250 -9.3750 0.000046 0.000073 -0.000092 -0.0055 0.0008 0.0011
211 1 -1.8750 -5.6249 -5.6250 -0.000020 0.000197 -0.000097 0.0025 -0.0095 -0.0027
212 1 -1.8750 -5.6250 -1.8751 0.000043 -0.000039 -0.000213 -0.0029 0.0004 0.0043
213 1 -1.8749 -5.6250 1.8750 0.000104 -0.000078 -0.000029 -0.0057 0.0042 -0.0004
214 1 -1.8750 -5.6251 5.6251 -0.000065 -0.000107 0.000163 0.0030 0.0017 -0.0051
215 1 -1.8750 -5.6250 9.3750 0.000054 -0.000024 0.000033 0.0007 0.0043 0.0017
216 1 -1.8750 -5.6250 13.1250 0.000021 -0.000014 -0.000036 -0.0042 0.0017 0.0018
217 1 -1.8750 -1.8749 -13.1250 0.000036 0.000163 0.000004 0.0009 -0.0035 -0.0036
218 1 -1.8749 -1.8749 -9.3750 0.000127 0.000122 -0.000035 -0.0047 -0.0050 0.0019
219 1 -1.8750 -1.8751 -5.6250 0.000014 -0.000169 0.000034 0.0020 0.0087 -0.0016
220 1 -1.8750 -1.8750 -1.8750 -0.000084 -0.000018 0.000001 0.0043 0.0005 -0.0016
221 1 -1.8750 -1.8750 1.8749 0.000045 0.000085 -0.000115 -0.0003 -0.0033 0.0042
222 1 -1.8749 -1.8750 5.6250 0.000116 0.000008 0.000051 -0.0044 -0.0011 -0.0055
223 1 -1.8750 -1.8750 9.3750 -0.000090 -0.000048 -0.000073 0.0011 -0.0005 0.0006
224 1 -1.8750 -1.8750 13.1249 -0.000036 0.000062 -0.000147 0.0035 -0.0015 0.0035
225 1 -1.8750 1.8750 -13.1250 0.000051 0.000059 -0.000072 -0.0146 -0.0015 0.0054
226 1 -1.8750 1.8749 -9.3750 0.000041 -0.000140 -0.000055 -0.0020 0.0093 -0.0017
227 1 -1.8750 1.8750 -5.6251 0.000075 -0.000024 -0.000107 -0.0157 -0.0074 -0.0016
228 1 -1.8750 1.8750 -1.8750 -0.000021 0.000034 0.000098 -0.0385 -0.0190 -0.0063
229 1 -1.8750 1.8750 1.8751 -0.000097 0.000047 0.000251 -0.0446 -0.0210 -0.0053
230 1 -1.8750 1.8750 5.6250 0.000012 0.000070 0.000043 -0.0486 -0.0268 0.0043
231 1 -1.8750 1.8750 9.3750 0.000075 -0.000088 0.000049 -0.0497 -0.0202 -0.0023
232 1 -1.8750 1.8750 13.1250 0.000065 0.000042 -0.000095 -0.0360 -0.0174 0.0086
233 1 -1.8750 5.6251 -13.1250 0.000011 0.000170 -0.000088 -0.0753 -0.0290 0.0165
234 1 -1.8750 5.6251 -9.3750 0.000026 0.000139 0.000088 -0.0475 -0.0297 -0.0057
235 1 -1.8750 5.6250 -5.6250 -0.000011 0.000038 -0.000074 -0.0741 -0.0237 -0.0089
236 1 -1.8750 5.6250 -1.8750 -0.000083 0.000014 -0.000048 -0.1257 -0.0248 -0.0130
237 1 -1.8749 5.6251 1.8750 0.000197 0.000141 -0.000055 -0.1577 -0.0263 -0.0005
238 1 -1.8749 5.6250 5.6250 0.000124 -0.000051 -0.000064 -0.1549 -0.0166 -0.0013
239 1 -1.8750 5.6250 9.3749 0.000081 0.000072 -0.000126 -0.1565 -0.0248 0.0025
240 1 -1.8750 5.6250 13.1250 -0.000029 0.000053 -0.000018 -0.1291 -0.0253 0.0087
241 1 -1.8750 9.3750 -13.1251 0.000049 -0.000036 -0.000191 -0.1678 -0.0135 0.0120
242 1 -1.8750 9.3750 -9.3750 0.000013 0.000077 -0.000084 -0.1526 -0.0259 -0.0011
243 1 -1.8750 9.3750 -5.6250 0.000005 0.000095 -0.000012 -0.1661 -0.0192 -0.0057
244 1 -1.8750 9.3750 -1.8750 -0.000039 -0.000049 0.000078 -0.1927 -0.0028 -0.0080
245 1 -1.8751 9.3750 1.8750 -0.000111 0.000041 0.000037 -0.1992 0.0025 -0.0025
246 1 -1.8750 9.3751 5.6249 0.000030 0.000234 -0.000141 -0.2034 -0.0087 0.0075
247 1 -1.8750 9.3751 9.3751 0.000074 0.000157 0.000117 -0.2036 -0.0064 -0.0048
248 1 -1.8750 9.3750 13.1250 -0.000004 -0.000026 0.000074 -0.1895 -0.0072 0.0020
249 1 -1.8750 13.1250 -13.1250 -0.000010 0.000004 0.000045 -0.1551 0.0244 -0.0003
250 1 -1.8749 13.1249 -9.3750 0.000131 -0.000122 -0.000034 -0.1600 0.0296 0.0038
251 1 -1.8750 13.1250 -5.6249 -0.000060 0.000060 0.000100 -0.1459 0.0224 -0.0037
252 1 -1.8750 13.1250 -1.8750 0.000018 0.000080 0.000013 -0.1553 0.0215 0.0013
253 1 -1.8750 13.1250 1.8750 -0.000078 0.000069 -0.000004 -0.1530 0.0220 -0.0000
254 1 -1.8750 13.1250 5.6250 0.000079 0.000000 -0.000022 -0.1604 0.0280 0.0014
255 1 -1.8750 13.1249 9.3750 0.000017 -0.000129 0.000033 -0.1525 0.0333 -0.0003
256 1 -1.8751 13.1249 13.1250 -0.000122 -0.000169 0.000082 -0.1454 0.0317 -0.0014
257 1 1.8751 -13.1249 -13.1250 0.000140 0.000154 0.000056 -0.7765 0.5872 -0.0000
258 1 1.8750 -13.1249 -9.3749 0.000039 0.000229 0.000100 -0.7721 0.5882 -0.0024
259 1 1.8750 -13.1250 -5.6250 -0.000060 -0.000069 -0.000020 -0.7699 0.5977 0.0005
260 1 1.8750 -13.1250 -1.8751 -0.000064 -0.000056 -0.000115 -0.7681 0.5982 0.0047
261 1 1.8750 -13.1251 1.8750 -0.000013 -0.000207 0.000074 -0.7735 0.6027 -0.0058
262 1 1.8750 -13.1250 5.6250 -0.000014 -0.000080 -0.000076 -0.7676 0.5992 0.0042
263 1 1.8750 -13.1250 9.3750 0.000037 -0.000017 0.000010 -0.7701 0.5959 -0.0019
264 1 1.8750 -13.1250 13.1250 0.000001 0.000013 -0.000017 -0.7763 0.5894 0.0016
265 1 1.8750 -9.3750 -13.1250 -0.000027 -0.000004 -0.000093 -0.2256 0.0513 0.0019
266 1 1.8749 -9.3750 -9.3751 -0.000132 -0.000005 -0.000126 -0.2181 0.0505 0.0007
267 1 1.8750 -9.3750 -5.6250 0.000074 -0.000010 -0.000071 -0.2261 0.0452 0.0025
268 1 1.8749 -9.3750 -1.8749 -0.000170 0.000080 0.000157 -0.2184 0.0455 -0.0050
269 1 1.8750 -9.3750 1.8750 0.000093 0.000086 0.000084 -0.2299 0.0416 -0.0026
270 1 1.8750 -9.3749 5.6249 0.000054 0.000124 -0.000132 -0.2280 0.0418 0.0021
271 1 1.8750 -9.3750 9.3749 0.000063 -0.000011 -0.000210 -0.2257 0.0483 0.0058
272 1 1.8749 -9.3751 13.1250 -0.000136 -0.000136 0.000069 -0.2178 0.0521 -0.0078
273 1 1.8750 -5.6250 -13.1250 -0.000058 0.000052 -0.000045 -0.1966 -0.0042 0.0032
274 1 1.8750 -5.6250 -9.3750 -0.000036 -0.000063 0.000066 -0.1979 0.0016 -0.0014
275 1 1.8750 -5.6250 -5.6250 0.000086 -0.000053 0.000077 -0.2044 -0.0024 0.0022
276 1 1.8750 -5.6250 -1.8749 -0.000027 0.000097 0.000181 -0.2017 0.0005 -0.0004
277 1 1.8750 -5.6250 1.8751 0.000083 0.000046 0.000224 -0.2006 0.0013 -0.0039
278 1 1.8750 -5.6250 5.6250 0.000028 -0.000014 0.000009 -0.2030 0.0045 0.0008
279 1 1.8750 -5.6250 9.3749 0.000057 0.000061 -0.000162 -0.2025 -0.0018 0.0060
280 1 1.8748 -5.6250 13.1250 -0.000317 0.000003 0.000031 -0.1899 -0.0049 -0.0049
281 1 1.8750 -1.8751 -13.1250 0.000034 -0.000125 0.000000 -0.2095 -0.0077 0.0072
282 1 1.8750 -1.8750 -9.3749 -0.000047 -0.000014 0.000105 -0.1933 0.0004 -0.0025
283 1 1.8750 -1.8751 -5.6250 0.000006 -0.000202 0.000057 -0.2038 -0.0078 -0.0051
284 1 1.8750 -1.8749 -1.8750 0.000015 0.000113 0.000039 -0.2168 -0.0395 -0.0052
285 1 1.8750 -1.8750 1.8750 0.000059 0.000071 0.000056 -0.2262 -0.0500 0.0008
286 1 1.8750 -1.8750 5.6251 0.000033 0.000095 0.000112 -0.2243 -0.0493 -0.0026
287 1 1.8750 -1.8750 9.3750 -0.000016 0.000018 0.000011 -0.2271 -0.0487 0.0013
288 1 1.8750 -1.8751 13.1250 -0.000048 -0.000124 -0.000027 -0.2171 -0.0286 0.0070
289 1 1.8750 1.8750 -13.1250 0.000056 -0.000059 0.000025 -0.3155 -0.1400 0.0999
290 1 1.8750 1.8750 -9.3750 0.000005 0.000044 0.000011 -0.2363 -0.0598 0.0000
291 1 1.8750 1.8749 -5.6250 -0.000076 -0.000102 0.000001 -0.3142 -0.1411 -0.1007
292 1 1.8749 1.8749 -1.8751 -0.000161 -0.000118 -0.000101 -0.6751 -0.4931 -0.0960
293 1 1.8750 1.8750 1.8750 0.000052 -0.000039 -0.000003 -0.7671 -0.5880 -0.0141
294 1 1.8750 1.8750 5.6250 -0.000005 0.000077 -0.000012 -0.7708 -0.5953 0.0010
295 1 1.8750 1.8750 9.3750 0.000031 -0.000099 0.000050 -0.7657 -0.5849 0.0112
296 1 1.8750 1.8751 13.1250 0.000060 0.000155 0.000075 -0.6805 -0.5103 0.0980
297 1 1.8749 5.6250 -13.1250 -0.000145 0.000063 -0.000039 -1.1399 -0.5987 0.3900
298 1 1.8750 5.6250 -9.3750 0.000056 0.000031 0.000081 -0.7958 -0.5962 -0.0034
299 1 1.8749 5.6250 -5.6250 -0.000162 -0.000021 0.000007 -1.1406 -0.5982 -0.3843
300 1 1.8750 5.6251 -1.8750 0.000046 0.000136 -0.000010 5.9981 -0.6007 -0.3833
301 1 1.8750 5.6250 1.8750 0.000070 -0.000071 0.000082 5.6413 -0.5939 -0.0258
302 1 1.8750 5.6250 5.6250 0.000108 0.000031 0.000070 5.6275 -0.5933 -0.0005
303 1 1.8750 5.6250 9.3750 -0.000042 0.000052 0.000013 5.6406 -0.5986 0.0268
304 1 1.8751 5.6250 13.1250 0.000128 -0.000060 0.000097 5.9978 -0.5906 0.3816
305 1 1.8750 9.3750 -13.1250 0.000084 -0.000025 -0.000012 5.5569 -0.4549 0.0985
306 1 1.8750 9.3750 -9.3750 0.000082 -0.000037 0.000017 5.6376 -0.5335 0.0015
307 1 1.8751 9.3750 -5.6249 0.000166 -0.000090 0.000122 5.5550 -0.4515 -0.1005
308 1 1.8750 9.3750 -1.8749 -0.000084 0.000055 0.000132 5.1964 -0.0927 -0.0964
309 1 1.8749 9.3750 1.8751 -0.000113 -0.000011 0.000263 5.1082 -0.0080 -0.0191
310 1 1.8750 9.3750 5.6250 -0.000036 0.000070 -0.000060 5.1039 -0.0030 0.0058
311 1 1.8750 9.3750 9.3750 0.000038 0.000007 -0.000057 5.1094 -0.0047 0.0107
312 1 1.8750 9.3750 13.1250 -0.000000 -0.000008 -0.000079 5.1955 -0.0965 0.1003
313 1 1.8750 13.1249 -13.1250 -0.000016 -0.000135 0.000018 5.6444 0.5663 0.0039
314 1 1.8750 13.1250 -9.3750 -0.000067 0.000040 -0.000088 5.6536 0.5502 0.0048
315 1 1.8751 13.1250 -5.6250 0.000169 0.000035 0.000083 5.6411 0.5553 -0.0108
316 1 1.8750 13.1250 -1.8750 -0.000076 -0.000019 -0.000019 5.6341 0.5840 -0.0072
317 1 1.8750 13.1250 1.8749 -0.000077 -0.000056 -0.000190 5.6267 0.5929 0.0073
318 1 1.8749 13.1250 5.6250 -0.000150 -0.000053 0.000085 5.6303 0.5966 -0.0037
319 1 1.8750 13.1250 9.3751 0.000054 0.000032 0.000139 5.6263 0.5941 -0.0027
320 1 1.8750 13.1249 13.1250 0.000069 -0.000132 0.000022 5.6293 0.5881 0.0080
321 1 5.6251 -13.1249 -13.1250 0.000120 0.000097 -0.000001 5.0562 -6.2926 0.0008
322 1 5.6250 -13.1250 -9.3750 0.000075 -0.000018 -0.000009 5.0547 -6.2933 -0.0023
323 1 5.6250 -13.1250 -5.6251 -0.000018 -0.000053 -0.000132 5.0543 -6.2914 0.0020
324 1 5.6250 -13.1250 -1.8751 0.000069 -0.000033 -0.000121 5.0532 -6.2921 -0.0007
325 1 5.6250 -13.1250 1.8749 -0.000018 -0.000100 -0.000133 5.0552 -6.2940 0.0021
326 1 5.6251 -13.1250 5.6250 0.000183 0.000063 -0.000010 5.0522 -6.2949 -0.0037
327 1 5.6250 -13.1249 9.3750 0.000063 0.000099 -0.000089 5.0549 -6.2945 0.0040
328 1 5.6250 -13.1250 13.1250 -0.000003 0.000045 0.000057 5.0551 -6.2939 -0.0036
329 1 5.6250 -9.3749 -13.1250 -0.000073 0.000105 0.000091 5.0554 0.1067 -0.0027
330 1 5.6250 -9.3750 -9.3750 0.000087 -0.000023 0.000042 5.0516 0.1067 0.0031
331 1 5.6250 -9.3750 -5.6249 0.000012 0.000033 0.000145 5.0566 0.1041 -0.0023
332 1 5.6250 -9.3750 -1.8750 -0.000012 0.000008 0.000089 5.0525 0.1049 0.0002
333 1 5.6250 -9.3751 1.8750 -0.000049 -0.000153 0.000031 5.0577 0.1103 0.0012
334 1 5.6250 -9.3750 5.6250 0.000085 -0.000067 0.000031 5.0549 0.1097 -0.0022
335 1 5.6250 -9.3750 9.3749 0.000017 -0.000003 -0.000107 5.0561 0.1097 0.0039
336 1 5.6251 -9.3750 13.1250 0.000175 -0.000007 -0.000020 5.0504 0.1058 0.0002
337 1 5.6250 -5.6249 -13.1249 0.000103 0.000132 0.000187 5.0530 -0.0038 -0.0058
338 1 5.6250 -5.6250 -9.3750 0.000032 0.000022 0.000021 5.0539 -0.0028 0.0023
339 1 5.6250 -5.6250 -5.6250 -0.000023 0.000006 -0.000015 5.0572 -0.0004 0.0026
340 1 5.6249 -5.6250 -1.8749 -0.000145 -0.000017 0.000106 5.0567 -0.0002 -0.0032
341 1 5.6250 -5.6250 1.8750 0.000047 0.000051 0.000057 5.0564 -0.0024 -0.0020
342 1 5.6250 -5.6250 5.6250 0.000001 0.000014 -0.000094 5.0557 -0.0037 0.0065
343 1 5.6250 -5.6250 9.3751 -0.000061 0.000093 0.000135 5.0574 -0.0018 -0.0060
344 1 5.6250 -5.6250 13.1250 0.000001 -0.000067 0.000008 5.0493 0.0005 0.0058
345 1 5.6249 -1.8750 -13.1250 -0.000136 -0.000073 0.000059 5.0575 -0.0198 0.0104
346 1 5.6251 -1.8750 -9.3750 0.000192 -0.000088 0.000093 5.0517 0.0024 -0.0029
347 1 5.6251 -1.8750 -5.6250 0.000146 -0.000049 -0.000041 5.0530 -0.0253 -0.0069
348 1 5.6251 -1.8750 -1.8749 0.000198 -0.000040 0.000105 5.0528 -0.0832 -0.0155
349 1 5.6250 -1.8749 1.8750 -0.000031 0.000118 0.000056 5.0565 -0.1100 0.0030
350 1 5.6250 -1.8750 5.6251 -0.000051 -0.000099 0.000171 5.0567 -0.1006 -0.0039
351 1 5.6250 -1.8750 9.3750 -0.000081 0.000073 0.000044 5.0562 -0.1069 0.0004
352 1 5.6250 -1.8750 13.1250 0.000016 -0.000078 -0.000066 5.0545 -0.0790 0.0161
353 1 5.6251 1.8750 -13.1250 0.000161 -0.000050 0.000048 5.0543 -0.4802 0.3847
354 1 5.6250 1.8750 -9.3750 -0.000039 -0.000057 0.000023 5.0556 -0.1279 -0.0022
355 1 5.6250 1.8749 -5.6251 -0.000039 -0.000181 -0.000119 5.0545 -0.4725 -0.3789
356 1 5.6250 1.8749 -1.8749 -0.000057 -0.000111 0.000107 5.0530 6.6674 -0.3901
357 1 5.6251 1.8750 1.8750 0.000142 -0.000055 0.000057 5.0542 6.3080 -0.0245
358 1 5.6250 1.8751 5.6250 0.000067 0.000116 -0.000025 5.0541 6.2893 0.0007
359 1 5.6250 1.8750 9.3750 0.000011 -0.000016 -0.000056 5.0558 6.3064 0.0259
360 1 5.6250 1.8750 13.1250 -0.000034 0.000080 0.000030 5.0568 6.6635 0.3841
361 1 5.6250 5.6250 -13.1251 0.000050 -0.000070 -0.000132 5.0516 6.2930 -7.0850
362 1 5.6250 5.6250 -9.3750 0.000077 0.000092 0.000025 5.0552 6.2904 -0.0030
363 1 5.6250 5.6250 -5.6250 -0.000004 0.000075 0.000021 5.0524 6.2884 7.0877
ITEM: TIMESTEP
10
ITEM: NUMBER OF ATOMS
363
ITEM: BOX BOUNDS pp pp pp
-15.000000 15.000000
-15.000000 15.000000
-15.000000 15.000000
ITEM: ATOMS id type xu yu zu vx vy vz fx fy fz
1 1 -13.1258 -13.1249 -13.1250 -0.000234 0.000027 -0.000002 -5.0189 -0.0114 0.0149
2 1 -13.1247 -13.1247 -9.3750 -0.000038 0.000055 -0.000008 -5.0685 -0.0253 0.0051
3 1 -13.1247 -13.1252 -5.6250 -0.000035 -0.000031 -0.000002 -5.0762 0.0066 -0.0353
4 1 -13.1246 -13.1248 -1.8759 -0.000009 0.000039 -0.000171 -5.0763 -0.0203 0.0583
5 1 -13.1247 -13.1247 1.8749 -0.000037 0.000059 -0.000025 -5.0860 -0.0153 -0.0208
6 1 -13.1252 -13.1246 5.6251 -0.000120 0.000078 0.000020 -5.0534 -0.0364 -0.0472