ITEM: TIMESTEP
0
ITEM: NUMBER OF ATOMS
363
ITEM: BOX BOUNDS pp pp pp
-15.000000 15.000000
-15.000000 15.000000
-15.000000 15.000000
ITEM: ATOMS id type xu yu zu vx vy vz fx fy fz
1 1 -13.1250 -13.1250 -13.1250 0.000002 0.000043 0.000000 -5.0540 0.0025 0.0043
2 1 -13.1250 -13.1250 -9.3750 -0.000058 0.000089 0.000076 -5.0547 -0.0049 -0.0059
3 1 -13.1250 -13.1250 -5.6251 -0.000077 -0.000002 -0.000171 -5.0528 0.0017 0.0062
4 1 -13.1249 -13.1249 -1.8750 0.000175 0.000164 -0.000066 -5.0581 -0.0065 0.0002
5 1 -13.1250 -13.1250 1.8750 -0.000041 -0.000046 0.000051 -5.0546 0.0017 -0.0036
6 1 -13.1251 -13.1249 5.6250 -0.000160 0.000218 -0.000033 -5.0538 -0.0066 0.0034
7 1 -13.1250 -13.1250 9.3750 -0.000083 -0.000011 0.000077 -5.0559 -0.0015 -0.0004
8 1 -13.1250 -13.1250 13.1251 -0.000001 -0.000099 0.000153 -5.0580 0.0061 -0.0037
9 1 -13.1250 -9.3749 -13.1251 0.000024 0.000107 -0.000178 -5.0544 -0.0047 0.0042
10 1 -13.1250 -9.3750 -9.3750 -0.000003 0.000044 -0.000017 -5.0557 0.0009 -0.0044
11 1 -13.1250 -9.3750 -5.6250 0.000005 0.000003 -0.000097 -5.0558 0.0010 0.0020
12 1 -13.1250 -9.3750 -1.8750 -0.000088 0.000031 -0.000071 -5.0519 0.0010 0.0021
13 1 -13.1250 -9.3750 1.8750 -0.000065 -0.000026 0.000076 -5.0527 -0.0020 -0.0030
14 1 -13.1250 -9.3750 5.6250 -0.000076 -0.000070 0.000048 -5.0519 0.0043 -0.0016
15 1 -13.1250 -9.3751 9.3750 0.000009 -0.000208 -0.000077 -5.0543 0.0068 0.0019
16 1 -13.1250 -9.3750 13.1250 0.000018 0.000057 -0.000082 -5.0523 -0.0028 -0.0021
17 1 -13.1250 -5.6250 -13.1250 -0.000033 -0.000095 -0.000028 -5.0561 0.0025 -0.0007
18 1 -13.1250 -5.6250 -9.3751 0.000078 0.000048 -0.000153 -5.0547 -0.0010 0.0026
19 1 -13.1250 -5.6250 -5.6251 -0.000050 0.000078 -0.000121 -5.0538 -0.0029 0.0009
20 1 -13.1250 -5.6250 -1.8750 -0.000081 -0.000067 -0.000031 -5.0542 0.0036 -0.0005
21 1 -13.1251 -5.6251 1.8750 -0.000151 -0.000112 0.000030 -5.0529 0.0029 -0.0003
22 1 -13.1251 -5.6251 5.6250 -0.000134 -0.000124 0.000069 -5.0522 0.0024 -0.0021
23 1 -13.1250 -5.6250 9.3750 -0.000061 0.000001 -0.000013 -5.0544 -0.0043 0.0028
24 1 -13.1250 -5.6250 13.1250 -0.000063 0.000043 0.000052 -5.0585 0.0032 -0.0023
25 1 -13.1250 -1.8751 -13.1250 -0.000093 -0.000123 -0.000015 -5.0537 0.0029 -0.0012
26 1 -13.1250 -1.8750 -9.3750 -0.000051 -0.000013 -0.000064 -5.0562 0.0008 0.0022
27 1 -13.1250 -1.8750 -5.6250 0.000063 -0.000013 0.000008 -5.0582 0.0006 -0.0015
28 1 -13.1250 -1.8750 -1.8750 0.000069 0.000041 -0.000006 -5.0557 -0.0011 -0.0005
29 1 -13.1250 -1.8750 1.8750 0.000033 -0.000046 -0.000042 -5.0534 -0.0018 0.0013
30 1 -13.1251 -1.8750 5.6250 -0.000123 -0.000027 -0.000003 -5.0521 -0.0002 -0.0014
31 1 -13.1250 -1.8750 9.3750 -0.000046 -0.000032 -0.000038 -5.0541 0.0009 0.0010
32 1 -13.1251 -1.8749 13.1250 -0.000201 0.000187 -0.000019 -5.0508 -0.0036 -0.0005
33 1 -13.1250 1.8750 -13.1249 0.000016 0.000046 0.000160 -5.0554 -0.0037 -0.0037
34 1 -13.1250 1.8750 -9.3750 -0.000098 -0.000036 0.000006 -5.0527 -0.0007 0.0034
35 1 -13.1251 1.8750 -5.6250 -0.000150 -0.000065 0.000025 -5.0567 0.0018 0.0005
36 1 -13.1250 1.8750 -1.8750 -0.000108 0.000068 0.000069 -5.0537 -0.0038 -0.0027
37 1 -13.1250 1.8750 1.8750 -0.000095 -0.000070 -0.000038 -5.0529 0.0003 0.0043
38 1 -13.1250 1.8750 5.6251 -0.000093 0.000054 0.000106 -5.0507 -0.0019 -0.0066
39 1 -13.1250 1.8750 9.3749 0.000038 -0.000002 -0.000125 -5.0545 0.0001 0.0078
40 1 -13.1250 1.8750 13.1250 -0.000071 0.000089 0.000082 -5.0539 -0.0031 -0.0021
41 1 -13.1250 5.6250 -13.1250 0.000085 0.000010 0.000034 -5.0557 -0.0012 -0.0008
42 1 -13.1250 5.6250 -9.3750 0.000030 -0.000083 -0.000012 -5.0561 0.0042 0.0018
43 1 -13.1250 5.6250 -5.6250 -0.000016 -0.000005 0.000055 -5.0550 0.0004 -0.0026
44 1 -13.1250 5.6249 -1.8750 -0.000021 -0.000134 -0.000025 -5.0552 0.0080 0.0025
45 1 -13.1250 5.6250 1.8750 0.000002 -0.000062 0.000041 -5.0549 0.0005 -0.0027
46 1 -13.1251 5.6250 5.6250 -0.000200 0.000019 -0.000040 -5.0544 0.0015 0.0019
47 1 -13.1249 5.6250 9.3750 0.000119 0.000043 -0.000003 -5.0548 0.0012 0.0000
48 1 -13.1250 5.6249 13.1250 -0.000033 -0.000192 0.000033 -5.0532 0.0065 -0.0005
49 1 -13.1251 9.3749 -13.1250 -0.000176 -0.000102 -0.000095 -5.0538 0.0054 0.0051
50 1 -13.1249 9.3751 -9.3750 0.000206 0.000123 0.000067 -5.0591 -0.0082 -0.0032
51 1 -13.1250 9.3750 -5.6250 0.000003 0.000061 0.000050 -5.0553 -0.0004 -0.0000
52 1 -13.1250 9.3751 -1.8750 -0.000057 0.000123 0.000029 -5.0541 -0.0084 0.0004
53 1 -13.1250 9.3750 1.8750 -0.000037 -0.000014 0.000018 -5.0546 0.0002 -0.0002
54 1 -13.1250 9.3750 5.6250 0.000005 0.000063 -0.000010 -5.0537 0.0000 -0.0003
55 1 -13.1250 9.3751 9.3750 -0.000039 0.000131 -0.000049 -5.0546 -0.0015 0.0021
56 1 -13.1250 9.3750 13.1250 0.000036 -0.000090 0.000035 -5.0568 0.0014 -0.0038
57 1 -13.1251 13.1251 -13.1250 -0.000123 0.000103 0.000006 -5.0547 -0.0045 0.0024
58 1 -13.1250 13.1249 -9.3749 -0.000059 -0.000139 0.000190 -5.0538 0.0085 -0.0072
59 1 -13.1250 13.1251 -5.6250 0.000010 0.000101 -0.000048 -5.0534 -0.0021 0.0037
60 1 -13.1250 13.1250 -1.8750 0.000041 -0.000097 -0.000069 -5.0561 0.0084 0.0016
61 1 -13.1251 13.1250 1.8750 -0.000127 0.000054 -0.000004 -5.0548 -0.0030 -0.0026
62 1 -13.1250 13.1251 5.6250 0.000034 0.000105 -0.000075 -5.0547 0.0016 0.0028
63 1 -13.1250 13.1251 9.3750 0.000015 0.000112 0.000014 -5.0577 -0.0017 -0.0029
64 1 -13.1250 13.1251 13.1250 -0.000105 0.000103 -0.000057 -5.0519 -0.0071 0.0020
65 1 -9.3750 -13.1250 -13.1250 0.000066 -0.000020 0.000005 0.1969 0.0014 0.0026
66 1 -9.3750 -13.1249 -9.3750 -0.000017 0.000121 0.000094 0.2004 -0.0041 -0.0050
67 1 -9.3750 -13.1250 -5.6251 0.000084 0.000079 -0.000106 0.1976 -0.0011 0.0031
68 1 -9.3750 -13.1251 -1.8751 -0.000019 -0.000207 -0.000115 0.2050 0.0024 0.0039
69 1 -9.3750 -13.1250 1.8750 0.000001 -0.000034 0.000095 0.2002 0.0013 -0.0028
70 1 -9.3750 -13.1250 5.6251 -0.000050 0.000004 0.000140 0.1993 -0.0019 -0.0016
71 1 -9.3751 -13.1250 9.3750 -0.000105 -0.000012 0.000061 0.2050 -0.0005 0.0016
72 1 -9.3751 -13.1250 13.1250 -0.000150 0.000082 0.000047 0.2082 -0.0035 -0.0003
73 1 -9.3750 -9.3750 -13.1250 0.000074 0.000068 0.000045 0.1998 0.0035 -0.0012
74 1 -9.3750 -9.3750 -9.3750 -0.000018 0.000057 0.000025 0.2012 0.0000 -0.0013
75 1 -9.3750 -9.3750 -5.6250 -0.000032 0.000094 -0.000076 0.2032 0.0005 0.0030
76 1 -9.3749 -9.3751 -1.8750 0.000121 -0.000169 -0.000006 0.1952 0.0028 -0.0013
77 1 -9.3750 -9.3750 1.8750 0.000076 0.000014 -0.000017 0.2014 -0.0049 -0.0008
78 1 -9.3749 -9.3750 5.6250 0.000113 -0.000001 -0.000053 0.1955 0.0019 -0.0005
79 1 -9.3750 -9.3750 9.3750 0.000052 -0.000039 -0.000085 0.1983 0.0005 0.0010
80 1 -9.3749 -9.3750 13.1250 0.000178 -0.000066 -0.000034 0.1995 0.0044 0.0003
81 1 -9.3750 -5.6248 -13.1250 -0.000070 0.000330 0.000011 0.2015 -0.0095 -0.0043
82 1 -9.3750 -5.6250 -9.3751 0.000085 -0.000010 -0.000181 0.2010 0.0001 0.0028
83 1 -9.3750 -5.6249 -5.6251 0.000047 0.000108 -0.000181 0.1985 -0.0002 0.0026
84 1 -9.3750 -5.6250 -1.8750 -0.000009 0.000069 -0.000003 0.1972 -0.0074 -0.0036
85 1 -9.3750 -5.6251 1.8750 0.000002 -0.000219 -0.000022 0.1983 0.0075 0.0020
86 1 -9.3750 -5.6249 5.6250 0.000047 0.000103 0.000067 0.2000 -0.0046 -0.0021
87 1 -9.3750 -5.6250 9.3750 -0.000011 -0.000045 0.000019 0.2010 0.0000 0.0002
88 1 -9.3751 -5.6250 13.1250 -0.000232 0.000045 -0.000028 0.2082 -0.0053 0.0014
89 1 -9.3750 -1.8750 -13.1250 -0.000002 -0.000005 0.000023 0.2001 0.0064 -0.0003
90 1 -9.3750 -1.8750 -9.3750 -0.000087 -0.000038 0.000009 0.2034 0.0028 -0.0002
91 1 -9.3751 -1.8750 -5.6250 -0.000119 0.000085 -0.000030 0.2065 0.0004 0.0013
92 1 -9.3750 -1.8751 -1.8750 0.000027 -0.000118 -0.000003 0.1992 0.0034 -0.0017
93 1 -9.3749 -1.8750 1.8750 0.000119 0.000005 -0.000057 0.1938 -0.0038 0.0008
94 1 -9.3750 -1.8750 5.6250 0.000069 -0.000085 -0.000046 0.1971 0.0052 -0.0006
95 1 -9.3750 -1.8750 9.3750 0.000015 -0.000032 -0.000051 0.1993 0.0006 0.0012
96 1 -9.3750 -1.8751 13.1250 0.000073 -0.000129 0.000002 0.1942 0.0050 -0.0004
97 1 -9.3750 1.8750 -13.1251 0.000003 -0.000008 -0.000141 0.2037 0.0018 0.0054
98 1 -9.3750 1.8751 -9.3750 0.000059 0.000102 0.000001 0.1998 -0.0018 -0.0022
99 1 -9.3751 1.8750 -5.6250 -0.000199 0.000053 0.000031 0.2054 -0.0018 0.0003
100 1 -9.3750 1.8750 -1.8750 -0.000004 -0.000087 0.000060 0.1984 0.0013 0.0011
101 1 -9.3750 1.8750 1.8751 0.000053 0.000011 0.000132 0.1964 0.0010 -0.0019
102 1 -9.3749 1.8750 5.6250 0.000160 0.000023 0.000077 0.1938 -0.0008 -0.0019
103 1 -9.3750 1.8750 9.3750 0.000072 0.000007 -0.000092 0.1998 -0.0026 0.0054
104 1 -9.3750 1.8750 13.1250 0.000013 0.000011 0.000049 0.1980 -0.0062 -0.0059
105 1 -9.3750 5.6250 -13.1250 0.000040 0.000095 -0.000079 0.2022 -0.0011 0.0051
106 1 -9.3750 5.6251 -9.3749 -0.000007 0.000124 0.000165 0.2030 -0.0028 -0.0079
107 1 -9.3750 5.6249 -5.6250 -0.000006 -0.000102 -0.000053 0.1996 0.0043 0.0045
108 1 -9.3750 5.6250 -1.8750 -0.000014 0.000038 0.000002 0.1997 -0.0031 0.0011
109 1 -9.3750 5.6250 1.8751 0.000009 0.000063 0.000122 0.2007 -0.0032 -0.0024
110 1 -9.3751 5.6250 5.6250 -0.000101 0.000076 0.000092 0.2027 -0.0017 0.0002
111 1 -9.3749 5.6249 9.3750 0.000110 -0.000101 0.000059 0.1997 0.0035 -0.0008
112 1 -9.3750 5.6249 13.1250 0.000096 -0.000177 -0.000036 0.1994 0.0059 0.0005
113 1 -9.3750 9.3751 -13.1250 -0.000043 0.000108 -0.000054 0.1982 -0.0016 0.0012
114 1 -9.3750 9.3750 -9.3750 -0.000051 -0.000045 -0.000071 0.2055 0.0026 0.0034
115 1 -9.3750 9.3750 -5.6249 0.000013 -0.000001 0.000125 0.2045 -0.0022 -0.0067
116 1 -9.3750 9.3750 -1.8750 0.000019 -0.000031 -0.000057 0.1988 0.0007 0.0030
117 1 -9.3750 9.3750 1.8750 0.000005 -0.000075 -0.000071 0.2009 0.0032 0.0043
118 1 -9.3750 9.3750 5.6251 0.000077 0.000012 0.000176 0.1996 -0.0003 -0.0078
119 1 -9.3750 9.3750 9.3750 0.000018 -0.000009 -0.000041 0.1970 -0.0018 0.0048
120 1 -9.3750 9.3750 13.1250 -0.000067 -0.000006 0.000012 0.2018 -0.0029 -0.0022
121 1 -9.3750 13.1250 -13.1251 -0.000081 -0.000007 -0.000130 0.1994 0.0018 0.0035
122 1 -9.3750 13.1250 -9.3750 0.000045 -0.000060 -0.000080 0.1965 0.0035 0.0053
123 1 -9.3749 13.1250 -5.6249 0.000106 -0.000013 0.000285 0.1974 0.0020 -0.0140
124 1 -9.3750 13.1250 -1.8751 -0.000011 -0.000052 -0.000192 0.2040 -0.0026 0.0115
125 1 -9.3750 13.1250 1.8750 -0.000069 -0.000020 -0.000006 0.2018 -0.0012 -0.0036
126 1 -9.3750 13.1250 5.6250 0.000046 -0.000081 -0.000005 0.2002 0.0028 -0.0001
127 1 -9.3751 13.1250 9.3750 -0.000124 -0.000008 0.000005 0.2052 -0.0002 0.0003
128 1 -9.3750 13.1250 13.1250 0.000099 0.000010 0.000036 0.1962 0.0010 -0.0034
129 1 -5.6251 -13.1250 -13.1250 -0.000101 0.000066 -0.000096 0.0051 -0.0027 0.0025
130 1 -5.6250 -13.1250 -9.3750 0.000022 0.000032 0.000037 -0.0031 -0.0029 -0.0036
131 1 -5.6250 -13.1250 -5.6250 0.000061 0.000087 -0.000025 -0.0006 -0.0040 -0.0012
132 1 -5.6250 -13.1250 -1.8751 0.000032 -0.000044 -0.000147 -0.0032 0.0004 0.0076
133 1 -5.6250 -13.1250 1.8751 0.000016 -0.000050 0.000172 -0.0024 -0.0001 -0.0076
134 1 -5.6250 -13.1250 5.6250 -0.000002 0.000047 0.000051 0.0012 0.0018 -0.0010
135 1 -5.6249 -13.1250 9.3749 0.000115 0.000027 -0.000132 -0.0069 -0.0027 0.0034
136 1 -5.6249 -13.1251 13.1250 0.000156 -0.000133 -0.000088 -0.0084 0.0034 -0.0013
137 1 -5.6250 -9.3750 -13.1251 0.000071 0.000006 -0.000209 -0.0004 0.0023 0.0105
138 1 -5.6250 -9.3750 -9.3749 0.000006 -0.000050 0.000157 -0.0019 0.0040 -0.0061
139 1 -5.6250 -9.3750 -5.6249 0.000081 -0.000010 0.000149 -0.0049 0.0010 -0.0028
140 1 -5.6250 -9.3750 -1.8750 0.000005 -0.000029 -0.000049 0.0004 0.0015 0.0073
141 1 -5.6249 -9.3750 1.8751 0.000249 -0.000033 0.000162 -0.0066 0.0004 -0.0053
142 1 -5.6250 -9.3749 5.6250 0.000003 0.000125 0.000042 -0.0009 -0.0016 0.0036
143 1 -5.6250 -9.3750 9.3751 -0.000038 -0.000056 0.000104 0.0041 0.0027 -0.0016
144 1 -5.6249 -9.3750 13.1250 0.000214 -0.000072 0.000044 -0.0026 -0.0013 -0.0032
145 1 -5.6250 -5.6250 -13.1250 -0.000047 0.000077 0.000046 -0.0007 -0.0037 0.0002
146 1 -5.6250 -5.6250 -9.3750 0.000083 0.000088 0.000042 -0.0064 -0.0054 0.0001
147 1 -5.6250 -5.6250 -5.6250 0.000006 -0.000044 0.000028 0.0012 0.0009 -0.0007
148 1 -5.6251 -5.6250 -1.8750 -0.000119 0.000060 -0.000039 0.0019 -0.0034 0.0003
149 1 -5.6250 -5.6250 1.8750 0.000036 0.000011 -0.000075 -0.0000 0.0000 0.0016
150 1 -5.6249 -5.6250 5.6250 0.000184 0.000078 -0.000004 -0.0067 0.0006 0.0006
151 1 -5.6250 -5.6250 9.3751 0.000048 0.000015 0.000105 -0.0018 -0.0016 -0.0032
152 1 -5.6250 -5.6250 13.1250 0.000071 -0.000064 0.000026 -0.0043 0.0013 0.0021
153 1 -5.6250 -1.8750 -13.1250 0.000052 -0.000051 -0.000064 -0.0018 0.0033 0.0028
154 1 -5.6250 -1.8750 -9.3750 0.000052 -0.000089 0.000087 -0.0080 0.0068 -0.0039
155 1 -5.6250 -1.8750 -5.6250 0.000028 -0.000005 0.000007 -0.0024 -0.0034 0.0035
156 1 -5.6251 -1.8750 -1.8749 -0.000110 -0.000047 0.000114 0.0055 0.0010 -0.0026
157 1 -5.6251 -1.8750 1.8750 -0.000196 0.000045 0.000028 0.0072 -0.0008 0.0004
158 1 -5.6250 -1.8750 5.6250 0.000058 0.000039 -0.000047 -0.0022 -0.0024 -0.0020
159 1 -5.6250 -1.8750 9.3749 0.000006 -0.000002 -0.000218 0.0009 -0.0000 0.0051
160 1 -5.6250 -1.8750 13.1250 -0.000034 0.000035 -0.000056 0.0025 0.0001 -0.0034
161 1 -5.6249 1.8750 -13.1250 0.000157 0.000008 -0.000091 -0.0060 -0.0022 0.0026
162 1 -5.6249 1.8751 -9.3750 0.000139 0.000121 0.000039 -0.0045 -0.0072 -0.0037
163 1 -5.6250 1.8749 -5.6250 0.000049 -0.000146 -0.000038 -0.0078 0.0018 -0.0010
164 1 -5.6250 1.8750 -1.8751 -0.000030 -0.000093 -0.000156 0.0010 -0.0007 0.0058
165 1 -5.6250 1.8750 1.8750 -0.000030 0.000023 0.000088 0.0016 -0.0023 -0.0051
166 1 -5.6250 1.8749 5.6250 0.000002 -0.000143 0.000040 0.0041 0.0034 0.0002
167 1 -5.6250 1.8750 9.3750 0.000051 -0.000014 -0.000001 0.0004 -0.0029 -0.0003
168 1 -5.6250 1.8751 13.1250 -0.000039 0.000128 -0.000069 0.0037 -0.0015 0.0004
169 1 -5.6250 5.6250 -13.1250 0.000072 -0.000042 0.000014 -0.0036 0.0007 0.0057
170 1 -5.6250 5.6249 -9.3749 0.000083 -0.000100 0.000172 -0.0029 0.0032 -0.0042
171 1 -5.6250 5.6249 -5.6250 -0.000068 -0.000151 0.000068 -0.0006 0.0052 0.0024
172 1 -5.6250 5.6249 -1.8750 -0.000058 -0.000172 0.000075 0.0015 0.0057 0.0004
173 1 -5.6250 5.6249 1.8750 0.000007 -0.000139 0.000072 -0.0003 0.0056 -0.0012
174 1 -5.6249 5.6249 5.6250 0.000153 -0.000103 -0.000001 -0.0082 -0.0004 0.0024
175 1 -5.6250 5.6249 9.3750 0.000023 -0.000178 0.000064 0.0033 0.0047 0.0006
176 1 -5.6249 5.6251 13.1251 0.000135 0.000118 0.000154 -0.0055 -0.0009 -0.0035
177 1 -5.6250 9.3750 -13.1251 -0.000043 -0.000035 -0.000221 -0.0014 -0.0002 0.0094
178 1 -5.6250 9.3749 -9.3750 -0.000033 -0.000124 0.000077 -0.0016 0.0013 -0.0071
179 1 -5.6249 9.3751 -5.6250 0.000226 0.000147 -0.000014 -0.0037 -0.0083 0.0012
180 1 -5.6250 9.3750 -1.8750 -0.000011 0.000087 -0.000037 0.0015 -0.0069 0.0017
181 1 -5.6250 9.3750 1.8750 0.000061 0.000014 0.000043 -0.0035 -0.0043 -0.0028
182 1 -5.6250 9.3750 5.6250 0.000069 -0.000065 -0.000036 -0.0012 0.0010 0.0017
183 1 -5.6251 9.3750 9.3750 -0.000130 -0.000042 0.000007 0.0028 -0.0028 -0.0002
184 1 -5.6250 9.3750 13.1250 -0.000095 0.000010 0.000042 -0.0008 0.0026 -0.0055
185 1 -5.6250 13.1250 -13.1250 -0.000086 -0.000040 -0.000088 0.0025 0.0020 0.0028
186 1 -5.6250 13.1250 -9.3750 -0.000089 -0.000038 0.000008 0.0051 -0.0004 -0.0052
187 1 -5.6250 13.1250 -5.6251 0.000007 -0.000048 -0.000175 -0.0002 0.0059 0.0069
188 1 -5.6249 13.1250 -1.8750 0.000120 -0.000039 0.000075 -0.0032 0.0021 -0.0044
189 1 -5.6250 13.1250 1.8750 0.000067 -0.000070 0.000055 -0.0043 0.0016 0.0006
190 1 -5.6250 13.1250 5.6250 0.000010 0.000038 0.000073 0.0017 -0.0014 -0.0012
191 1 -5.6250 13.1250 9.3750 0.000016 -0.000048 0.000024 -0.0019 0.0012 0.0003
192 1 -5.6250 13.1250 13.1250 0.000008 0.000034 -0.000020 0.0006 -0.0034 -0.0006
193 1 -1.8750 -13.1250 -13.1250 0.000045 0.000052 -0.000057 -0.0499 0.0225 0.0000
194 1 -1.8751 -13.1250 -9.3750 -0.000121 -0.000096 0.000033 -0.0396 0.0256 -0.0006
195 1 -1.8750 -13.1250 -5.6250 -0.000006 0.000028 0.000082 -0.0461 0.0266 -0.0043
196 1 -1.8750 -13.1250 -1.8751 -0.000093 0.000022 -0.000120 -0.0453 0.0240 0.0045
197 1 -1.8750 -13.1251 1.8750 -0.000089 -0.000122 -0.000042 -0.0432 0.0255 -0.0049
198 1 -1.8749 -13.1251 5.6249 0.000117 -0.000201 -0.000207 -0.0522 0.0291 0.0064
199 1 -1.8750 -13.1250 9.3750 -0.000063 0.000020 0.000036 -0.0418 0.0204 -0.0072
200 1 -1.8750 -13.1250 13.1249 -0.000017 0.000033 -0.000128 -0.0421 0.0236 0.0037
201 1 -1.8750 -9.3749 -13.1250 0.000029 0.000165 -0.000046 0.0013 -0.0041 0.0003
202 1 -1.8750 -9.3751 -9.3750 -0.000059 -0.000123 -0.000059 0.0021 0.0024 0.0013
203 1 -1.8750 -9.3750 -5.6250 -0.000087 0.000058 0.000025 0.0068 -0.0017 0.0011
204 1 -1.8750 -9.3750 -1.8749 -0.000083 -0.000032 0.000174 0.0054 0.0025 -0.0082
205 1 -1.8750 -9.3751 1.8749 0.000007 -0.000104 -0.000178 0.0026 0.0008 0.0092
206 1 -1.8751 -9.3750 5.6250 -0.000133 -0.000075 -0.000001 0.0069 -0.0040 -0.0045
207 1 -1.8749 -9.3751 9.3750 0.000124 -0.000170 -0.000077 -0.0062 0.0074 0.0021
208 1 -1.8750 -9.3750 13.1250 0.000066 0.000091 -0.000013 0.0035 -0.0041 -0.0018
209 1 -1.8750 -5.6250 -13.1250 -0.000037 0.000008 -0.000037 -0.0018 0.0015 -0.0010
210 1 -1.8751 -5.6250 -9.3750 -0.000284 0.000010 -0.000082 0.0117 -0.0042 -0.0018
211 1 -1.8750 -5.6250 -5.6251 0.000028 -0.000027 -0.000203 -0.0002 0.0023 0.0053
212 1 -1.8750 -5.6250 -1.8750 -0.000098 0.000058 0.000018 0.0004 -0.0036 -0.0075
213 1 -1.8750 -5.6250 1.8749 0.000066 -0.000036 -0.000170 0.0005 -0.0003 0.0052
214 1 -1.8750 -5.6251 5.6250 -0.000077 -0.000146 -0.000043 0.0071 0.0045 0.0020
215 1 -1.8750 -5.6250 9.3751 0.000015 0.000076 0.000197 0.0014 -0.0036 -0.0078
216 1 -1.8749 -5.6251 13.1250 0.000132 -0.000108 -0.000036 -0.0070 0.0071 0.0042
217 1 -1.8750 -1.8750 -13.1250 0.000002 -0.000074 -0.000056 0.0014 0.0034 0.0017
218 1 -1.8751 -1.8750 -9.3750 -0.000244 -0.000076 -0.000055 0.0095 -0.0001 0.0013
219 1 -1.8750 -1.8750 -5.6250 0.000038 0.000010 0.000018 -0.0019 -0.0006 -0.0047
220 1 -1.8750 -1.8750 -1.8751 0.000061 -0.000055 -0.000176 -0.0019 0.0015 0.0073
221 1 -1.8750 -1.8750 1.8750 -0.000075 0.000025 0.000084 -0.0012 -0.0008 -0.0066
222 1 -1.8750 -1.8750 5.6250 -0.000081 0.000070 -0.000043 0.0059 -0.0050 0.0018
223 1 -1.8750 -1.8749 9.3750 0.000051 0.000108 -0.000066 -0.0028 -0.0015 0.0020
224 1 -1.8750 -1.8749 13.1250 0.000012 0.000109 0.000042 -0.0014 0.0006 -0.0035
225 1 -1.8750 1.8750 -13.1250 -0.000044 0.000051 -0.000024 -0.0080 -0.0067 0.0050
226 1 -1.8750 1.8749 -9.3751 -0.000045 -0.000149 -0.000129 0.0031 0.0041 0.0028
227 1 -1.8751 1.8750 -5.6250 -0.000131 0.000009 -0.000052 -0.0030 -0.0047 -0.0075
228 1 -1.8750 1.8750 -1.8750 -0.000005 -0.000072 -0.000052 -0.0358 -0.0164 -0.0067
229 1 -1.8750 1.8750 1.8749 -0.000033 0.000048 -0.000109 -0.0466 -0.0292 0.0037
230 1 -1.8750 1.8750 5.6250 0.000076 0.000002 0.000056 -0.0499 -0.0212 -0.0041
231 1 -1.8750 1.8750 9.3750 0.000040 0.000051 -0.000012 -0.0462 -0.0228 0.0021
232 1 -1.8749 1.8752 13.1250 0.000137 0.000339 0.000039 -0.0437 -0.0259 0.0038
233 1 -1.8751 5.6251 -13.1249 -0.000102 0.000124 0.000196 -0.0681 -0.0321 0.0056
234 1 -1.8750 5.6250 -9.3751 -0.000000 0.000044 -0.000109 -0.0462 -0.0264 0.0068
235 1 -1.8751 5.6250 -5.6250 -0.000130 0.000056 -0.000007 -0.0693 -0.0271 -0.0140
236 1 -1.8750 5.6250 -1.8750 -0.000015 0.000001 -0.000001 -0.1314 -0.0239 -0.0123
237 1 -1.8750 5.6249 1.8750 -0.000007 -0.000234 -0.000014 -0.1525 -0.0137 0.0018
238 1 -1.8750 5.6250 5.6250 -0.000062 0.000068 0.000061 -0.1491 -0.0258 0.0007
239 1 -1.8749 5.6250 9.3751 0.000119 0.000049 0.000175 -0.1532 -0.0235 -0.0027
240 1 -1.8751 5.6250 13.1251 -0.000159 0.000055 0.000104 -0.1214 -0.0184 0.0154
241 1 -1.8751 9.3749 -13.1250 -0.000121 -0.000285 -0.000036 -0.1635 -0.0093 0.0109
242 1 -1.8750 9.3750 -9.3749 -0.000084 0.000084 0.000130 -0.1504 -0.0239 -0.0052
243 1 -1.8749 9.3750 -5.6250 0.000174 -0.000099 -0.000012 -0.1691 -0.0111 -0.0033
244 1 -1.8750 9.3750 -1.8750 0.000062 0.000045 -0.000012 -0.1909 -0.0059 -0.0061
245 1 -1.8750 9.3750 1.8750 -0.000082 0.000081 -0.000024 -0.1967 -0.0075 0.0025
246 1 -1.8750 9.3750 5.6251 -0.000014 -0.000007 0.000110 -0.2026 0.0017 -0.0033
247 1 -1.8750 9.3750 9.3750 -0.000096 0.000052 0.000053 -0.1971 -0.0006 0.0014
248 1 -1.8751 9.3750 13.1250 -0.000149 0.000053 0.000079 -0.1838 -0.0072 0.0035
249 1 -1.8750 13.1249 -13.1250 0.000059 -0.000146 0.000079 -0.1576 0.0242 0.0019
250 1 -1.8750 13.1250 -9.3749 0.000063 0.000065 0.000103 -0.1550 0.0215 -0.0002
251 1 -1.8750 13.1251 -5.6250 -0.000084 0.000145 0.000098 -0.1524 0.0175 -0.0000
252 1 -1.8750 13.1250 -1.8750 0.000057 0.000077 0.000054 -0.1524 0.0224 0.0028
253 1 -1.8750 13.1250 1.8751 -0.000040 -0.000021 0.000142 -0.1502 0.0236 -0.0002
254 1 -1.8750 13.1250 5.6251 0.000067 0.000014 0.000176 -0.1549 0.0193 -0.0029
255 1 -1.8750 13.1250 9.3750 0.000045 0.000011 -0.000001 -0.1529 0.0247 0.0056
256 1 -1.8750 13.1250 13.1251 -0.000054 -0.000043 0.000137 -0.1494 0.0267 -0.0030
257 1 1.8750 -13.1250 -13.1249 0.000042 -0.000083 0.000106 -0.7738 0.5933 -0.0051
258 1 1.8751 -13.1250 -9.3750 0.000185 0.000012 0.000012 -0.7776 0.5915 0.0007
259 1 1.8750 -13.1250 -5.6250 -0.000023 -0.000092 -0.000036 -0.7700 0.5959 0.0026
260 1 1.8750 -13.1250 -1.8750 -0.000091 -0.000012 0.000066 -0.7687 0.5961 -0.0024
261 1 1.8750 -13.1249 1.8750 0.000048 0.000117 0.000010 -0.7760 0.5878 -0.0003
262 1 1.8750 -13.1250 5.6250 -0.000063 -0.000008 -0.000077 -0.7699 0.5975 0.0036
263 1 1.8750 -13.1251 9.3750 0.000092 -0.000123 0.000034 -0.7752 0.6001 -0.0043
264 1 1.8750 -13.1250 13.1250 0.000099 0.000013 -0.000091 -0.7737 0.5939 0.0056
265 1 1.8750 -9.3750 -13.1250 0.000052 -0.000091 0.000048 -0.2263 0.0492 0.0013
266 1 1.8750 -9.3750 -9.3749 -0.000016 -0.000098 0.000156 -0.2248 0.0536 -0.0009
267 1 1.8751 -9.3750 -5.6249 0.000132 -0.000090 0.000171 -0.2301 0.0477 -0.0033
268 1 1.8751 -9.3750 -1.8750 0.000127 0.000034 -0.000035 -0.2295 0.0461 0.0014
269 1 1.8749 -9.3751 1.8749 -0.000112 -0.000206 -0.000147 -0.2224 0.0554 0.0042
270 1 1.8751 -9.3750 5.6250 0.000152 0.000071 -0.000002 -0.2308 0.0464 -0.0028
271 1 1.8750 -9.3750 9.3750 -0.000081 -0.000056 -0.000007 -0.2193 0.0514 0.0002
272 1 1.8751 -9.3750 13.1250 0.000107 -0.000083 0.000002 -0.2264 0.0512 0.0009
273 1 1.8749 -5.6250 -13.1250 -0.000116 0.000018 0.000038 -0.1989 -0.0006 -0.0020
274 1 1.8750 -5.6249 -9.3750 0.000039 0.000145 0.000018 -0.2090 -0.0049 0.0007
275 1 1.8750 -5.6250 -5.6250 0.000016 -0.000050 0.000031 -0.1994 0.0010 -0.0001
276 1 1.8750 -5.6250 -1.8750 -0.000024 -0.000014 0.000034 -0.2019 0.0033 -0.0011
277 1 1.8750 -5.6250 1.8750 0.000095 -0.000046 -0.000024 -0.2020 0.0001 0.0005
278 1 1.8750 -5.6250 5.6250 0.000064 0.000064 -0.000059 -0.2069 -0.0012 0.0033
279 1 1.8750 -5.6249 9.3750 0.000070 0.000234 0.000095 -0.2003 -0.0061 -0.0055
280 1 1.8749 -5.6250 13.1250 -0.000213 0.000046 -0.000057 -0.1894 -0.0041 0.0044
281 1 1.8750 -1.8749 -13.1250 0.000011 0.000107 0.000052 -0.2050 -0.0138 0.0021
282 1 1.8750 -1.8750 -9.3750 0.000020 0.000085 -0.000066 -0.2017 0.0006 0.0031
283 1 1.8750 -1.8750 -5.6250 -0.000074 0.000061 0.000004 -0.2029 -0.0127 -0.0046
284 1 1.8751 -1.8749 -1.8749 0.000107 0.000122 0.000149 -0.2212 -0.0405 -0.0090
285 1 1.8750 -1.8749 1.8750 0.000006 0.000133 0.000070 -0.2274 -0.0497 0.0009
286 1 1.8751 -1.8750 5.6250 0.000121 -0.000020 0.000015 -0.2297 -0.0461 0.0030
287 1 1.8750 -1.8749 9.3751 -0.000072 0.000144 0.000109 -0.2222 -0.0478 -0.0042
288 1 1.8750 -1.8750 13.1250 -0.000010 -0.000049 -0.000050 -0.2184 -0.0348 0.0102
289 1 1.8750 1.8750 -13.1251 -0.000040 0.000041 -0.000100 -0.3191 -0.1415 0.1040
290 1 1.8750 1.8750 -9.3750 -0.000069 0.000038 0.000020 -0.2351 -0.0578 -0.0005
291 1 1.8751 1.8751 -5.6250 0.000186 0.000111 0.000097 -0.3274 -0.1399 -0.1030
292 1 1.8750 1.8750 -1.8750 0.000007 -0.000028 -0.000060 -0.6812 -0.4981 -0.0991
293 1 1.8750 1.8751 1.8749 0.000011 0.000161 -0.000206 -0.7688 -0.5905 -0.0072
294 1 1.8750 1.8750 5.6250 -0.000009 0.000001 -0.000063 -0.7689 -0.5939 -0.0019
295 1 1.8751 1.8750 9.3750 0.000105 -0.000009 0.000005 -0.7683 -0.5842 0.0115
296 1 1.8749 1.8750 13.1250 -0.000164 -0.000062 0.000067 -0.6687 -0.5043 0.0952
297 1 1.8750 5.6250 -13.1251 -0.000091 -0.000089 -0.000099 -1.1447 -0.5903 0.3887
298 1 1.8750 5.6250 -9.3750 -0.000038 0.000043 0.000046 -0.7943 -0.5973 -0.0012
299 1 1.8750 5.6251 -5.6249 -0.000049 0.000171 0.000114 -1.1452 -0.6004 -0.3895
300 1 1.8750 5.6250 -1.8750 -0.000090 0.000043 -0.000075 6.0010 -0.5964 -0.3823
301 1 1.8750 5.6250 1.8750 0.000017 0.000094 -0.000098 5.6385 -0.5927 -0.0205
302 1 1.8750 5.6251 5.6250 -0.000018 0.000103 0.000069 5.6259 -0.5986 -0.0047
303 1 1.8751 5.6251 9.3750 0.000179 0.000114 -0.000033 5.6382 -0.5986 0.0254
304 1 1.8750 5.6249 13.1250 0.000018 -0.000166 -0.000034 5.9968 -0.5893 0.3839
305 1 1.8749 9.3750 -13.1250 -0.000099 0.000055 -0.000093 5.5563 -0.4605 0.0997
306 1 1.8750 9.3750 -9.3750 0.000052 -0.000071 0.000028 5.6367 -0.5347 -0.0034
307 1 1.8749 9.3749 -5.6250 -0.000158 -0.000103 -0.000030 5.5627 -0.4482 -0.1002
308 1 1.8750 9.3750 -1.8751 0.000025 0.000054 -0.000142 5.1969 -0.0945 -0.0963
309 1 1.8750 9.3751 1.8750 0.000009 0.000136 -0.000081 5.1070 -0.0086 -0.0118
310 1 1.8749 9.3750 5.6250 -0.000204 0.000015 -0.000019 5.1052 0.0019 0.0017
311 1 1.8751 9.3750 9.3751 0.000154 0.000029 0.000134 5.1044 -0.0028 0.0036
312 1 1.8750 9.3750 13.1249 0.000100 0.000084 -0.000165 5.1916 -0.0987 0.1053
313 1 1.8750 13.1249 -13.1249 -0.000045 -0.000151 0.000143 5.6463 0.5642 0.0020
314 1 1.8750 13.1250 -9.3750 0.000094 -0.000095 0.000077 5.6502 0.5500 -0.0023
315 1 1.8750 13.1250 -5.6251 -0.000089 -0.000024 -0.000120 5.6443 0.5565 -0.0007
316 1 1.8750 13.1250 -1.8750 0.000020 -0.000004 -0.000014 5.6335 0.5842 -0.0085
317 1 1.8750 13.1250 1.8750 0.000033 0.000007 -0.000049 5.6254 0.5996 -0.0032
318 1 1.8750 13.1250 5.6249 0.000032 0.000038 -0.000244 5.6276 0.5939 0.0087
319 1 1.8750 13.1251 9.3750 0.000081 0.000112 0.000080 5.6261 0.5895 -0.0078
320 1 1.8751 13.1250 13.1250 0.000110 0.000028 -0.000022 5.6298 0.5844 0.0108
321 1 5.6250 -13.1250 -13.1250 -0.000050 -0.000003 0.000087 5.0566 -6.2954 -0.0039
322 1 5.6251 -13.1251 -9.3751 0.000155 -0.000177 -0.000122 5.0563 -6.2878 0.0041
323 1 5.6250 -13.1250 -5.6250 0.000092 0.000004 -0.000097 5.0532 -6.2937 0.0016
324 1 5.6251 -13.1250 -1.8750 0.000130 -0.000059 0.000026 5.0516 -6.2920 -0.0013
325 1 5.6250 -13.1250 1.8750 -0.000048 -0.000002 0.000076 5.0570 -6.2947 0.0010
326 1 5.6250 -13.1250 5.6251 -0.000089 0.000030 0.000166 5.0554 -6.2933 -0.0040
327 1 5.6250 -13.1250 9.3750 0.000062 0.000038 0.000025 5.0560 -6.2940 0.0035
328 1 5.6251 -13.1250 13.1250 0.000124 -0.000023 0.000075 5.0552 -6.2923 -0.0005
329 1 5.6250 -9.3751 -13.1250 -0.000042 -0.000153 -0.000091 5.0570 0.1135 0.0018
330 1 5.6250 -9.3749 -9.3750 0.000025 0.000133 -0.000062 5.0546 0.0981 0.0002
331 1 5.6250 -9.3750 -5.6250 0.000014 -0.000057 -0.000008 5.0573 0.1078 -0.0014
332 1 5.6250 -9.3750 -1.8750 0.000024 -0.000004 -0.000018 5.0572 0.1066 -0.0002
333 1 5.6250 -9.3750 1.8750 -0.000074 -0.000095 -0.000038 5.0542 0.1093 0.0032
334 1 5.6250 -9.3750 5.6251 0.000043 0.000003 0.000121 5.0578 0.1080 -0.0028
335 1 5.6250 -9.3750 9.3751 0.000033 -0.000034 0.000109 5.0532 0.1071 -0.0014
336 1 5.6250 -9.3750 13.1250 0.000007 0.000011 0.000000 5.0570 0.1066 0.0002
337 1 5.6250 -5.6249 -13.1251 -0.000074 0.000134 -0.000124 5.0543 -0.0100 0.0039
338 1 5.6249 -5.6250 -9.3750 -0.000099 -0.000022 -0.000017 5.0573 0.0019 0.0010
339 1 5.6250 -5.6250 -5.6249 0.000069 -0.000011 0.000144 5.0547 -0.0014 -0.0061
340 1 5.6250 -5.6250 -1.8750 0.000011 0.000072 -0.000043 5.0546 -0.0018 0.0052
341 1 5.6250 -5.6250 1.8750 0.000025 -0.000004 0.000055 5.0570 -0.0011 -0.0039
342 1 5.6249 -5.6250 5.6250 -0.000124 0.000081 -0.000070 5.0581 0.0009 0.0034
343 1 5.6251 -5.6250 9.3750 0.000109 -0.000037 0.000006 5.0551 -0.0002 -0.0018
344 1 5.6251 -5.6250 13.1250 0.000113 0.000066 -0.000005 5.0498 -0.0019 -0.0021
345 1 5.6250 -1.8751 -13.1250 0.000093 -0.000143 -0.000090 5.0543 -0.0175 0.0174
346 1 5.6251 -1.8750 -9.3750 0.000222 -0.000056 0.000025 5.0525 0.0009 -0.0001
347 1 5.6250 -1.8750 -5.6249 0.000043 -0.000037 0.000123 5.0532 -0.0236 -0.0180
348 1 5.6250 -1.8750 -1.8751 -0.000027 0.000035 -0.000116 5.0578 -0.0825 -0.0048
349 1 5.6250 -1.8750 1.8750 -0.000060 0.000033 0.000061 5.0563 -0.1059 -0.0038
350 1 5.6250 -1.8749 5.6250 0.000001 0.000190 0.000027 5.0577 -0.1091 0.0008
351 1 5.6250 -1.8750 9.3750 -0.000042 -0.000022 0.000030 5.0545 -0.1063 0.0011
352 1 5.6250 -1.8750 13.1250 -0.000048 0.000009 0.000096 5.0556 -0.0792 0.0078
353 1 5.6249 1.8750 -13.1250 -0.000122 -0.000036 0.000006 5.0562 -0.4834 0.3824
354 1 5.6250 1.8750 -9.3751 -0.000016 -0.000037 -0.000127 5.0543 -0.1280 0.0058
355 1 5.6250 1.8750 -5.6250 -0.000085 -0.000034 0.000079 5.0600 -0.4813 -0.3916
356 1 5.6249 1.8750 -1.8750 -0.000101 -0.000029 -0.000065 5.0571 6.6672 -0.3817
357 1 5.6250 1.8750 1.8750 -0.000079 0.000092 -0.000014 5.0568 6.3039 -0.0238
358 1 5.6250 1.8750 5.6250 0.000096 0.000096 0.000042 5.0538 6.2948 -0.0006
359 1 5.6250 1.8750 9.3750 0.000037 0.000000 0.000059 5.0566 6.3043 0.0223
360 1 5.6251 1.8750 13.1250 0.000131 0.000090 -0.000020 5.0504 6.6651 0.3870
361 1 5.6250 5.6249 -13.1250 -0.000026 -0.000135 0.000086 5.0542 6.2944 -7.0887
362 1 5.6250 5.6250 -9.3750 0.000026 0.000092 0.000006 5.0543 6.2911 0.0003
363 1 5.6250 5.6249 -5.6250 0.000057 -0.000126 -0.000065 5.0535 6.2940 7.0885
ITEM: TIMESTEP
10
ITEM: NUMBER OF ATOMS
363
ITEM: BOX BOUNDS pp pp pp
-15.000000 15.000000
-15.000000 15.000000
-15.000000 15.000000
ITEM: ATOMS id type xu yu zu vx vy vz fx fy fz
1 1 -13.1254 -13.1248 -13.1250 -0.000155 0.000043 0.000001 -5.0262 0.0271 0.0472
2 1 -13.1257 -13.1245 -9.3746 -0.000215 0.000088 0.000075 -5.0340 -0.0538 -0.0648
3 1 -13.1258 -13.1250 -5.6259 -0.000234 -0.000002 -0.000170 -5.0128 0.0186 0.0677
4 1 -13.1244 -13.1241 -1.8754 0.000017 0.000163 -0.000066 -5.0709 -0.0712 0.0026
5 1 -13.1256 -13.1253 1.8753 -0.000199 -0.000045 0.000050 -5.0328 0.0184 -0.0396
6 1 -13.1263 -13.1238 5.6248 -0.000318 0.000217 -0.000032 -5.0241 -0.0725 0.0371