ITEM: TIMESTEP
0
ITEM: NUMBER OF ATOMS
363
ITEM: BOX BOUNDS pp pp pp
-15.000000 15.000000
-15.000000 15.000000
-15.000000 15.000000
ITEM: ATOMS id type xu yu zu vx vy vz fx fy fz
1 1 -13.1249 -13.1251 -13.1250 0.000137 -0.000186 -0.000031 -5.0569 0.0038 -0.0002
2 1 -13.1250 -13.1249 -9.3750 -0.000051 0.000124 -0.000004 -5.0544 -0.0029 0.0011
3 1 -13.1250 -13.1251 -5.6249 0.000089 -0.000110 0.000105 -5.0581 0.0066 -0.0026
4 1 -13.1250 -13.1250 -1.8750 0.000073 0.000035 0.000055 -5.0578 -0.0031 -0.0015
5 1 -13.1250 -13.1250 1.8750 -0.000024 -0.000005 -0.000083 -5.0561 0.0015 0.0053
6 1 -13.1250 -13.1251 5.6250 -0.000028 -0.000110 0.000086 -5.0535 0.0026 -0.0051
7 1 -13.1250 -13.1250 9.3750 -0.000034 0.000077 -0.000038 -5.0551 -0.0005 0.0016
8 1 -13.1250 -13.1250 13.1250 -0.000005 0.000019 -0.000059 -5.0577 0.0030 0.0005
9 1 -13.1250 -9.3750 -13.1250 -0.000084 -0.000010 0.000014 -5.0507 -0.0038 0.0065
10 1 -13.1251 -9.3750 -9.3749 -0.000139 0.000050 0.000268 -5.0538 0.0023 -0.0089
11 1 -13.1251 -9.3749 -5.6250 -0.000116 0.000103 -0.000016 -5.0487 -0.0072 0.0055
12 1 -13.1250 -9.3750 -1.8750 -0.000046 0.000005 0.000001 -5.0548 -0.0001 0.0013
13 1 -13.1250 -9.3750 1.8750 -0.000026 0.000011 0.000088 -5.0542 0.0011 -0.0035
14 1 -13.1250 -9.3750 5.6250 -0.000058 -0.000021 -0.000038 -5.0550 -0.0045 0.0026
15 1 -13.1250 -9.3750 9.3750 0.000041 -0.000005 -0.000019 -5.0549 0.0030 0.0022
16 1 -13.1250 -9.3750 13.1251 -0.000025 0.000052 0.000110 -5.0546 -0.0010 -0.0039
17 1 -13.1250 -5.6250 -13.1250 0.000009 -0.000039 -0.000012 -5.0529 0.0047 0.0025
18 1 -13.1250 -5.6250 -9.3751 -0.000003 0.000086 -0.000128 -5.0563 -0.0031 0.0027
19 1 -13.1250 -5.6250 -5.6250 -0.000045 -0.000096 -0.000066 -5.0554 0.0047 0.0017
20 1 -13.1250 -5.6250 -1.8750 -0.000047 -0.000014 0.000089 -5.0524 -0.0007 -0.0061
21 1 -13.1251 -5.6250 1.8750 -0.000113 0.000083 -0.000091 -5.0519 -0.0008 0.0019
22 1 -13.1250 -5.6251 5.6249 -0.000029 -0.000173 -0.000146 -5.0521 0.0067 0.0021
23 1 -13.1250 -5.6250 9.3750 0.000040 0.000088 -0.000075 -5.0549 -0.0060 0.0047
24 1 -13.1250 -5.6250 13.1251 0.000016 0.000029 0.000250 -5.0564 -0.0002 -0.0101
25 1 -13.1251 -1.8749 -13.1249 -0.000167 0.000192 0.000102 -5.0536 -0.0072 -0.0040
26 1 -13.1250 -1.8750 -9.3750 0.000023 -0.000069 -0.000048 -5.0546 0.0021 0.0034
27 1 -13.1250 -1.8750 -5.6250 -0.000078 -0.000025 -0.000024 -5.0564 -0.0028 0.0030
28 1 -13.1250 -1.8750 -1.8749 0.000030 -0.000066 0.000173 -5.0574 0.0042 -0.0054
29 1 -13.1251 -1.8750 1.8750 -0.000126 0.000078 0.000044 -5.0529 -0.0018 -0.0004
30 1 -13.1250 -1.8750 5.6249 -0.000079 0.000075 -0.000126 -5.0531 -0.0048 0.0059
31 1 -13.1250 -1.8751 9.3750 0.000004 -0.000161 0.000032 -5.0567 0.0071 -0.0030
32 1 -13.1249 -1.8750 13.1250 0.000115 -0.000010 0.000018 -5.0570 -0.0002 0.0017
33 1 -13.1251 1.8750 -13.1250 -0.000125 -0.000006 0.000096 -5.0529 0.0037 -0.0041
34 1 -13.1251 1.8750 -9.3750 -0.000143 -0.000088 -0.000044 -5.0570 -0.0006 0.0045
35 1 -13.1249 1.8749 -5.6250 0.000129 -0.000124 0.000079 -5.0566 0.0036 -0.0058
36 1 -13.1250 1.8751 -1.8751 0.000003 0.000125 -0.000119 -5.0577 -0.0021 0.0057
37 1 -13.1250 1.8750 1.8750 -0.000038 -0.000045 0.000020 -5.0548 0.0050 -0.0030
38 1 -13.1250 1.8750 5.6250 -0.000071 0.000050 0.000000 -5.0537 -0.0008 0.0016
39 1 -13.1250 1.8750 9.3750 -0.000020 0.000001 0.000072 -5.0532 -0.0061 -0.0026
40 1 -13.1250 1.8750 13.1250 0.000008 -0.000065 -0.000007 -5.0564 0.0036 0.0035
41 1 -13.1250 5.6250 -13.1250 -0.000062 0.000000 -0.000017 -5.0534 -0.0012 0.0013
42 1 -13.1249 5.6249 -9.3749 0.000110 -0.000125 0.000136 -5.0570 0.0051 -0.0039
43 1 -13.1251 5.6250 -5.6250 -0.000119 -0.000005 0.000050 -5.0526 -0.0033 0.0009
44 1 -13.1250 5.6251 -1.8750 0.000021 0.000164 -0.000009 -5.0580 -0.0021 0.0014
45 1 -13.1250 5.6251 1.8750 0.000013 0.000131 -0.000000 -5.0570 -0.0039 0.0023
46 1 -13.1250 5.6250 5.6251 -0.000061 -0.000029 0.000139 -5.0544 0.0034 -0.0031
47 1 -13.1251 5.6249 9.3750 -0.000132 -0.000174 0.000076 -5.0537 0.0037 -0.0018
48 1 -13.1250 5.6250 13.1250 -0.000032 0.000074 -0.000095 -5.0565 -0.0042 0.0041
49 1 -13.1250 9.3750 -13.1251 -0.000045 -0.000067 -0.000191 -5.0526 0.0001 0.0066
50 1 -13.1250 9.3751 -9.3750 -0.000062 0.000140 0.000017 -5.0558 -0.0068 -0.0051
51 1 -13.1250 9.3750 -5.6250 0.000027 -0.000056 -0.000047 -5.0546 0.0028 0.0020
52 1 -13.1250 9.3750 -1.8750 -0.000040 0.000058 0.000011 -5.0560 -0.0009 -0.0002
53 1 -13.1250 9.3750 1.8750 -0.000048 0.000075 0.000045 -5.0549 0.0007 -0.0031
54 1 -13.1250 9.3750 5.6250 -0.000027 0.000076 -0.000082 -5.0545 -0.0036 0.0010
55 1 -13.1250 9.3749 9.3749 -0.000045 -0.000106 -0.000120 -5.0550 0.0024 0.0022
56 1 -13.1249 9.3750 13.1250 0.000093 -0.000035 -0.000004 -5.0573 0.0054 -0.0055
57 1 -13.1249 13.1249 -13.1250 0.000106 -0.000112 0.000056 -5.0577 -0.0011 0.0010
58 1 -13.1250 13.1250 -9.3749 -0.000097 0.000006 0.000107 -5.0564 0.0048 -0.0029
59 1 -13.1251 13.1250 -5.6250 -0.000253 0.000068 -0.000013 -5.0518 -0.0052 0.0024
60 1 -13.1250 13.1249 -1.8750 0.000040 -0.000104 -0.000002 -5.0552 0.0052 0.0003
61 1 -13.1250 13.1250 1.8750 0.000046 0.000048 0.000026 -5.0523 -0.0003 0.0012
62 1 -13.1251 13.1250 5.6251 -0.000233 -0.000033 0.000105 -5.0524 0.0004 -0.0014
63 1 -13.1250 13.1251 9.3750 -0.000069 0.000118 0.000083 -5.0556 -0.0045 -0.0001
64 1 -13.1250 13.1251 13.1250 -0.000038 0.000141 0.000035 -5.0541 -0.0050 0.0015
65 1 -9.3750 -13.1250 -13.1251 0.000018 0.000013 -0.000117 0.2029 -0.0021 0.0065
66 1 -9.3750 -13.1250 -9.3750 0.000010 0.000080 0.000080 0.2004 -0.0042 -0.0048
67 1 -9.3750 -13.1250 -5.6250 -0.000096 0.000081 0.000008 0.2036 -0.0059 0.0028
68 1 -9.3750 -13.1249 -1.8750 -0.000069 0.000144 0.000080 0.2016 -0.0047 -0.0026
69 1 -9.3750 -13.1251 1.8750 -0.000058 -0.000141 -0.000013 0.2012 0.0062 0.0005
70 1 -9.3750 -13.1249 5.6250 0.000058 0.000107 -0.000078 0.2010 -0.0074 0.0033
71 1 -9.3750 -13.1250 9.3750 -0.000017 0.000030 0.000059 0.1997 -0.0012 -0.0020
72 1 -9.3751 -13.1250 13.1250 -0.000131 0.000014 0.000071 0.2064 0.0012 -0.0032
73 1 -9.3749 -9.3750 -13.1250 0.000185 -0.000090 0.000043 0.1929 0.0021 -0.0007
74 1 -9.3750 -9.3750 -9.3749 -0.000039 -0.000048 0.000111 0.1981 0.0030 -0.0043
75 1 -9.3749 -9.3751 -5.6250 0.000258 -0.000121 -0.000070 0.1929 0.0031 0.0030
76 1 -9.3750 -9.3749 -1.8750 -0.000010 0.000130 -0.000093 0.1989 -0.0000 0.0025
77 1 -9.3750 -9.3750 1.8750 0.000030 0.000040 0.000051 0.2020 -0.0050 -0.0035
78 1 -9.3750 -9.3750 5.6250 -0.000030 -0.000095 -0.000003 0.2012 0.0039 -0.0008
79 1 -9.3750 -9.3750 9.3749 0.000054 0.000071 -0.000107 0.1994 0.0011 0.0023
80 1 -9.3750 -9.3749 13.1250 0.000021 0.000122 -0.000070 0.2007 -0.0045 0.0009
81 1 -9.3749 -5.6250 -13.1250 0.000126 -0.000058 0.000088 0.1966 0.0006 -0.0061
82 1 -9.3750 -5.6250 -9.3750 -0.000063 -0.000012 -0.000030 0.2041 -0.0002 -0.0022
83 1 -9.3750 -5.6251 -5.6251 -0.000053 -0.000114 -0.000266 0.2030 -0.0028 0.0076
84 1 -9.3749 -5.6250 -1.8750 0.000116 0.000073 -0.000027 0.1961 0.0020 -0.0050
85 1 -9.3750 -5.6250 1.8750 0.000088 -0.000054 -0.000056 0.1958 0.0001 0.0001
86 1 -9.3749 -5.6250 5.6250 0.000143 -0.000063 -0.000076 0.1946 0.0019 -0.0008
87 1 -9.3750 -5.6249 9.3749 0.000056 0.000153 -0.000132 0.1977 -0.0037 0.0006
88 1 -9.3750 -5.6250 13.1249 -0.000035 -0.000034 -0.000139 0.2022 0.0006 0.0033
89 1 -9.3750 -1.8750 -13.1250 -0.000033 0.000013 -0.000013 0.1971 0.0025 -0.0037
90 1 -9.3750 -1.8750 -9.3751 0.000038 0.000006 -0.000160 0.2013 0.0011 0.0059
91 1 -9.3751 -1.8751 -5.6250 -0.000107 -0.000225 0.000065 0.2034 0.0065 -0.0037
92 1 -9.3751 -1.8750 -1.8750 -0.000102 0.000089 0.000056 0.2041 -0.0038 -0.0030
93 1 -9.3750 -1.8751 1.8749 0.000023 -0.000118 -0.000123 0.1994 0.0054 0.0033
94 1 -9.3750 -1.8750 5.6250 0.000050 0.000090 -0.000089 0.1979 -0.0043 -0.0004
95 1 -9.3750 -1.8750 9.3750 -0.000069 -0.000001 -0.000057 0.2000 0.0011 -0.0008
96 1 -9.3750 -1.8751 13.1250 -0.000011 -0.000142 -0.000060 0.2029 0.0016 0.0007
97 1 -9.3750 1.8751 -13.1251 0.000013 0.000220 -0.000120 0.1968 -0.0086 0.0052
98 1 -9.3751 1.8750 -9.3749 -0.000189 0.000071 0.000121 0.2041 -0.0027 -0.0059
99 1 -9.3750 1.8750 -5.6250 0.000012 0.000069 0.000008 0.2053 -0.0057 0.0019
100 1 -9.3751 1.8749 -1.8750 -0.000120 -0.000146 -0.000012 0.2086 0.0034 0.0031
101 1 -9.3750 1.8751 1.8751 -0.000012 0.000153 0.000125 0.2041 -0.0090 -0.0034
102 1 -9.3750 1.8750 5.6250 0.000023 -0.000007 0.000041 0.1978 0.0015 -0.0006
103 1 -9.3750 1.8749 9.3750 0.000091 -0.000113 -0.000089 0.1958 0.0066 0.0028
104 1 -9.3750 1.8749 13.1250 -0.000051 -0.000128 -0.000036 0.2034 0.0023 -0.0028
105 1 -9.3750 5.6249 -13.1250 0.000046 -0.000104 0.000017 0.1973 0.0077 0.0031
106 1 -9.3750 5.6250 -9.3750 -0.000028 -0.000015 -0.000022 0.2044 0.0037 -0.0019
107 1 -9.3750 5.6250 -5.6251 0.000068 0.000021 -0.000146 0.1984 0.0012 0.0029
108 1 -9.3751 5.6249 -1.8750 -0.000133 -0.000140 -0.000063 0.2067 0.0021 0.0010
109 1 -9.3750 5.6249 1.8750 -0.000086 -0.000108 0.000078 0.2018 0.0060 -0.0048
110 1 -9.3750 5.6250 5.6250 -0.000010 -0.000009 -0.000040 0.2024 -0.0010 0.0039
111 1 -9.3750 5.6251 9.3750 -0.000020 0.000152 0.000089 0.1986 -0.0061 0.0002
112 1 -9.3750 5.6250 13.1251 -0.000094 0.000043 0.000206 0.2036 -0.0056 -0.0043
113 1 -9.3749 9.3750 -13.1250 0.000116 0.000012 -0.000054 0.1975 -0.0023 -0.0009
114 1 -9.3750 9.3750 -9.3750 -0.000070 0.000095 -0.000074 0.2043 -0.0040 0.0040
115 1 -9.3750 9.3750 -5.6249 0.000035 0.000020 0.000140 0.2011 -0.0010 -0.0096
116 1 -9.3750 9.3750 -1.8751 -0.000062 0.000021 -0.000214 0.2030 -0.0058 0.0128
117 1 -9.3750 9.3750 1.8751 -0.000011 -0.000017 0.000172 0.2021 -0.0003 -0.0088
118 1 -9.3750 9.3750 5.6250 0.000001 -0.000066 0.000028 0.1995 -0.0006 0.0036
119 1 -9.3750 9.3750 9.3750 -0.000026 0.000048 0.000057 0.2022 0.0000 -0.0029
120 1 -9.3750 9.3749 13.1250 -0.000042 -0.000102 -0.000082 0.2040 0.0036 0.0025
121 1 -9.3750 13.1250 -13.1250 -0.000049 -0.000001 0.000026 0.2015 0.0006 0.0001
122 1 -9.3751 13.1250 -9.3750 -0.000149 -0.000025 0.000069 0.2035 0.0041 -0.0029
123 1 -9.3750 13.1250 -5.6250 -0.000006 -0.000041 -0.000056 0.1946 0.0032 0.0014
124 1 -9.3750 13.1249 -1.8750 0.000028 -0.000138 -0.000090 0.2019 0.0077 -0.0000
125 1 -9.3749 13.1250 1.8749 0.000186 0.000063 -0.000116 0.1965 -0.0047 0.0004
126 1 -9.3750 13.1249 5.6250 -0.000021 -0.000134 -0.000073 0.1965 0.0051 0.0019
127 1 -9.3750 13.1250 9.3750 -0.000087 -0.000085 0.000096 0.2012 0.0043 -0.0051
128 1 -9.3750 13.1250 13.1250 0.000044 -0.000023 -0.000022 0.1973 -0.0010 0.0031
129 1 -5.6250 -13.1250 -13.1250 0.000009 0.000004 0.000016 -0.0001 0.0004 0.0018
130 1 -5.6250 -13.1250 -9.3750 0.000033 0.000035 0.000049 -0.0009 -0.0024 -0.0038
131 1 -5.6250 -13.1249 -5.6251 -0.000094 0.000177 -0.000138 0.0004 -0.0043 0.0066
132 1 -5.6251 -13.1250 -1.8750 -0.000153 -0.000065 0.000051 0.0044 -0.0007 -0.0017
133 1 -5.6250 -13.1250 1.8751 -0.000040 0.000013 0.000139 0.0023 -0.0015 -0.0021
134 1 -5.6249 -13.1250 5.6250 0.000135 0.000015 0.000085 -0.0026 -0.0010 0.0003
135 1 -5.6250 -13.1251 9.3750 -0.000054 -0.000148 0.000029 0.0023 0.0028 0.0020
136 1 -5.6250 -13.1250 13.1250 0.000088 0.000017 0.000071 -0.0046 0.0027 -0.0015
137 1 -5.6250 -9.3750 -13.1250 -0.000008 -0.000089 0.000018 0.0024 0.0037 0.0012
138 1 -5.6250 -9.3750 -9.3750 -0.000050 -0.000027 -0.000044 -0.0017 0.0003 -0.0010
139 1 -5.6249 -9.3750 -5.6251 0.000137 -0.000036 -0.000138 -0.0004 0.0058 0.0048
140 1 -5.6250 -9.3751 -1.8750 -0.000049 -0.000147 0.000050 0.0012 0.0038 -0.0021
141 1 -5.6249 -9.3750 1.8751 0.000148 -0.000052 0.000112 -0.0051 0.0055 -0.0010
142 1 -5.6250 -9.3750 5.6251 0.000049 -0.000057 0.000104 -0.0032 0.0045 -0.0030
143 1 -5.6250 -9.3750 9.3750 -0.000013 -0.000033 -0.000077 0.0060 0.0003 0.0071
144 1 -5.6250 -9.3750 13.1251 0.000069 0.000056 0.000145 -0.0015 0.0010 -0.0059
145 1 -5.6250 -5.6250 -13.1250 -0.000008 0.000034 0.000031 0.0015 -0.0032 0.0045
146 1 -5.6250 -5.6250 -9.3749 0.000083 -0.000075 0.000110 -0.0059 0.0016 -0.0033
147 1 -5.6250 -5.6250 -5.6250 0.000086 0.000054 -0.000010 -0.0061 -0.0033 0.0003
148 1 -5.6250 -5.6250 -1.8751 -0.000001 0.000018 -0.000127 0.0047 -0.0042 0.0039
149 1 -5.6250 -5.6249 1.8750 0.000025 0.000180 -0.000008 0.0004 -0.0084 -0.0007
150 1 -5.6250 -5.6249 5.6250 -0.000045 0.000125 0.000071 0.0054 -0.0031 -0.0036
151 1 -5.6251 -5.6249 9.3750 -0.000102 0.000110 -0.000044 0.0068 -0.0066 0.0063
152 1 -5.6250 -5.6249 13.1251 0.000012 0.000128 0.000186 -0.0041 -0.0021 -0.0062
153 1 -5.6250 -1.8750 -13.1250 -0.000076 -0.000016 -0.000081 0.0014 -0.0010 0.0060
154 1 -5.6250 -1.8750 -9.3749 0.000056 -0.000010 0.000233 -0.0019 0.0011 -0.0103
155 1 -5.6250 -1.8750 -5.6250 0.000028 -0.000060 -0.000065 -0.0021 0.0023 0.0057
156 1 -5.6250 -1.8750 -1.8750 -0.000031 -0.000027 -0.000045 -0.0021 0.0009 -0.0020
157 1 -5.6249 -1.8750 1.8749 0.000101 -0.000080 -0.000133 -0.0039 0.0072 0.0077
158 1 -5.6250 -1.8749 5.6251 0.000017 0.000125 0.000217 -0.0029 0.0019 -0.0062
159 1 -5.6251 -1.8751 9.3751 -0.000156 -0.000113 0.000176 0.0059 0.0033 -0.0023
160 1 -5.6250 -1.8750 13.1250 -0.000035 0.000048 -0.000038 0.0004 -0.0014 0.0030
161 1 -5.6250 1.8749 -13.1249 -0.000072 -0.000107 0.000186 0.0045 0.0029 -0.0057
162 1 -5.6250 1.8751 -9.3750 -0.000004 0.000116 0.000057 -0.0026 -0.0047 -0.0002
163 1 -5.6249 1.8750 -5.6250 0.000121 -0.000046 -0.000085 -0.0032 -0.0019 0.0025
164 1 -5.6249 1.8750 -1.8750 0.000206 -0.000012 -0.000076 -0.0099 -0.0005 0.0005
165 1 -5.6249 1.8750 1.8750 0.000193 0.000068 -0.000027 -0.0077 -0.0037 0.0006
166 1 -5.6250 1.8751 5.6250 -0.000038 0.000194 0.000058 -0.0017 -0.0055 -0.0022
167 1 -5.6250 1.8749 9.3750 -0.000096 -0.000117 0.000032 0.0055 0.0053 -0.0009
168 1 -5.6250 1.8749 13.1250 0.000047 -0.000133 -0.000045 -0.0012 0.0038 0.0058
169 1 -5.6250 5.6250 -13.1250 -0.000037 -0.000010 -0.000046 0.0037 -0.0008 -0.0008
170 1 -5.6250 5.6250 -9.3750 0.000031 -0.000035 0.000016 -0.0012 0.0040 -0.0006
171 1 -5.6249 5.6249 -5.6250 0.000113 -0.000111 0.000036 -0.0041 0.0024 -0.0013
172 1 -5.6250 5.6250 -1.8750 0.000060 -0.000028 -0.000030 -0.0063 -0.0001 0.0047
173 1 -5.6251 5.6250 1.8751 -0.000110 0.000024 0.000160 0.0015 0.0015 -0.0017
174 1 -5.6249 5.6250 5.6251 0.000123 -0.000088 0.000213 -0.0038 0.0054 -0.0059
175 1 -5.6250 5.6251 9.3749 -0.000019 0.000198 -0.000107 -0.0010 -0.0089 0.0048
176 1 -5.6250 5.6250 13.1249 0.000021 -0.000087 -0.000133 -0.0021 0.0006 0.0013
177 1 -5.6250 9.3750 -13.1251 0.000071 0.000043 -0.000139 0.0017 0.0004 0.0051
178 1 -5.6249 9.3750 -9.3750 0.000132 0.000040 0.000047 -0.0042 -0.0026 -0.0037
179 1 -5.6250 9.3750 -5.6250 0.000053 -0.000022 0.000015 0.0001 0.0007 0.0009
180 1 -5.6250 9.3750 -1.8750 0.000052 -0.000058 0.000028 -0.0048 0.0014 -0.0022
181 1 -5.6249 9.3750 1.8749 0.000108 0.000045 -0.000106 -0.0050 -0.0012 0.0035
182 1 -5.6250 9.3750 5.6250 -0.000037 -0.000035 -0.000006 0.0005 -0.0003 -0.0023
183 1 -5.6250 9.3750 9.3750 0.000065 -0.000018 -0.000025 -0.0049 0.0029 0.0002
184 1 -5.6250 9.3750 13.1250 0.000014 0.000020 -0.000028 -0.0015 -0.0001 -0.0017
185 1 -5.6251 13.1251 -13.1250 -0.000143 0.000116 -0.000032 0.0034 -0.0030 -0.0013
186 1 -5.6250 13.1250 -9.3750 -0.000022 -0.000021 0.000006 -0.0015 0.0017 -0.0042
187 1 -5.6250 13.1251 -5.6251 -0.000093 0.000115 -0.000180 0.0006 -0.0010 0.0045
188 1 -5.6250 13.1250 -1.8750 0.000078 0.000012 -0.000088 0.0003 -0.0028 0.0020
189 1 -5.6250 13.1250 1.8751 0.000048 -0.000019 0.000129 0.0018 0.0016 -0.0068
190 1 -5.6250 13.1250 5.6250 -0.000025 0.000019 -0.000062 0.0034 -0.0007 0.0056
191 1 -5.6250 13.1250 9.3750 -0.000063 -0.000071 0.000066 0.0011 -0.0007 -0.0059
192 1 -5.6250 13.1251 13.1249 -0.000089 0.000112 -0.000139 0.0035 -0.0031 0.0052
193 1 -1.8750 -13.1250 -13.1250 -0.000009 -0.000019 0.000013 -0.0491 0.0228 0.0009
194 1 -1.8750 -13.1249 -9.3750 -0.000015 0.000207 -0.000002 -0.0463 0.0191 -0.0009
195 1 -1.8750 -13.1250 -5.6250 -0.000049 0.000023 -0.000067 -0.0465 0.0245 0.0026
196 1 -1.8750 -13.1250 -1.8750 0.000031 -0.000060 0.000014 -0.0503 0.0279 -0.0034
197 1 -1.8749 -13.1250 1.8750 0.000122 -0.000029 -0.000085 -0.0515 0.0246 0.0039
198 1 -1.8750 -13.1250 5.6250 0.000034 -0.000087 0.000050 -0.0455 0.0275 -0.0051
199 1 -1.8750 -13.1250 9.3750 0.000055 0.000002 -0.000088 -0.0477 0.0203 0.0051
200 1 -1.8750 -13.1250 13.1250 0.000032 -0.000022 0.000073 -0.0458 0.0243 -0.0037
201 1 -1.8750 -9.3751 -13.1250 -0.000071 -0.000105 -0.000028 -0.0002 0.0045 0.0026
202 1 -1.8751 -9.3750 -9.3750 -0.000125 -0.000066 0.000047 0.0030 0.0066 -0.0048
203 1 -1.8750 -9.3750 -5.6251 -0.000047 -0.000058 -0.000146 0.0068 0.0015 0.0083
204 1 -1.8750 -9.3750 -1.8749 -0.000001 0.000056 0.000142 -0.0038 -0.0003 -0.0075
205 1 -1.8750 -9.3750 1.8750 -0.000047 -0.000030 -0.000011 0.0025 0.0005 0.0042
206 1 -1.8750 -9.3749 5.6250 -0.000035 0.000104 0.000066 0.0017 -0.0040 -0.0011
207 1 -1.8749 -9.3750 9.3750 0.000246 -0.000031 0.000087 -0.0089 0.0015 -0.0008
208 1 -1.8750 -9.3751 13.1250 0.000019 -0.000124 0.000039 0.0026 0.0013 -0.0003
209 1 -1.8750 -5.6250 -13.1250 -0.000060 0.000068 -0.000069 -0.0002 -0.0033 0.0034
210 1 -1.8751 -5.6250 -9.3750 -0.000103 0.000039 0.000061 0.0033 -0.0016 -0.0008
211 1 -1.8751 -5.6250 -5.6249 -0.000110 -0.000052 0.000134 0.0025 0.0013 -0.0032
212 1 -1.8749 -5.6249 -1.8750 0.000132 0.000120 -0.000013 -0.0057 -0.0013 0.0010
213 1 -1.8750 -5.6250 1.8750 -0.000006 0.000007 -0.000099 -0.0007 -0.0017 0.0057
214 1 -1.8750 -5.6250 5.6251 0.000071 0.000046 0.000146 -0.0055 0.0006 -0.0083
215 1 -1.8749 -5.6250 9.3750 0.000125 0.000020 -0.000088 -0.0063 0.0004 0.0054
216 1 -1.8751 -5.6251 13.1250 -0.000165 -0.000134 0.000003 0.0057 0.0021 -0.0032
217 1 -1.8750 -1.8750 -13.1250 -0.000028 0.000032 -0.000095 -0.0003 -0.0005 0.0029
218 1 -1.8750 -1.8750 -9.3750 -0.000040 0.000049 0.000064 0.0035 0.0027 -0.0047
219 1 -1.8750 -1.8750 -5.6250 0.000047 0.000050 -0.000041 -0.0030 -0.0020 0.0027
220 1 -1.8750 -1.8750 -1.8750 -0.000049 0.000079 0.000004 -0.0010 0.0001 -0.0022
221 1 -1.8750 -1.8750 1.8750 -0.000050 -0.000033 -0.000082 0.0062 0.0032 0.0028
222 1 -1.8751 -1.8750 5.6250 -0.000183 0.000017 -0.000016 0.0043 -0.0008 -0.0013
223 1 -1.8749 -1.8750 9.3750 0.000107 0.000084 0.000005 -0.0048 -0.0010 -0.0021
224 1 -1.8750 -1.8750 13.1250 -0.000038 0.000020 -0.000073 0.0010 -0.0029 0.0008
225 1 -1.8750 1.8750 -13.1250 0.000098 -0.000035 0.000097 -0.0144 -0.0013 0.0006
226 1 -1.8750 1.8751 -9.3750 0.000046 0.000195 -0.000075 -0.0011 -0.0054 0.0030
227 1 -1.8750 1.8750 -5.6250 0.000039 0.000038 -0.000067 -0.0130 -0.0081 -0.0055
228 1 -1.8750 1.8750 -1.8750 -0.000044 0.000022 -0.000026 -0.0318 -0.0181 -0.0092
229 1 -1.8750 1.8751 1.8749 -0.000059 0.000102 -0.000166 -0.0445 -0.0266 0.0035
230 1 -1.8751 1.8750 5.6250 -0.000162 -0.000042 -0.000074 -0.0397 -0.0195 -0.0005
231 1 -1.8750 1.8750 9.3750 0.000026 0.000073 0.000010 -0.0496 -0.0243 -0.0021
232 1 -1.8750 1.8750 13.1250 0.000058 0.000013 -0.000028 -0.0376 -0.0175 0.0086
233 1 -1.8750 5.6251 -13.1250 0.000096 0.000145 0.000062 -0.0778 -0.0276 0.0091
234 1 -1.8750 5.6250 -9.3750 0.000031 0.000005 -0.000088 -0.0454 -0.0176 0.0057
235 1 -1.8750 5.6250 -5.6250 -0.000080 -0.000098 0.000081 -0.0652 -0.0182 -0.0178
236 1 -1.8750 5.6250 -1.8750 -0.000095 -0.000050 -0.000082 -0.1237 -0.0194 -0.0074
237 1 -1.8750 5.6250 1.8750 -0.000003 0.000051 0.000022 -0.1537 -0.0233 -0.0027
238 1 -1.8750 5.6251 5.6250 0.000009 0.000152 -0.000033 -0.1514 -0.0268 0.0008
239 1 -1.8750 5.6250 9.3750 -0.000067 0.000004 -0.000027 -0.1521 -0.0234 0.0008
240 1 -1.8750 5.6250 13.1250 0.000017 0.000017 0.000028 -0.1291 -0.0245 0.0120
241 1 -1.8750 9.3750 -13.1250 0.000096 0.000073 -0.000095 -0.1658 -0.0170 0.0052
242 1 -1.8750 9.3751 -9.3750 0.000086 0.000152 -0.000086 -0.1542 -0.0254 0.0033
243 1 -1.8750 9.3750 -5.6249 0.000077 0.000087 0.000123 -0.1661 -0.0197 -0.0138
244 1 -1.8750 9.3751 -1.8751 -0.000094 0.000120 -0.000127 -0.1853 -0.0094 -0.0007
245 1 -1.8750 9.3750 1.8750 -0.000078 0.000016 -0.000074 -0.1958 0.0006 -0.0015
246 1 -1.8750 9.3751 5.6250 -0.000024 0.000128 -0.000093 -0.1996 -0.0021 0.0015
247 1 -1.8751 9.3750 9.3750 -0.000133 -0.000031 -0.000011 -0.1948 -0.0021 -0.0038
248 1 -1.8750 9.3750 13.1249 -0.000008 -0.000024 -0.000125 -0.1878 -0.0026 0.0080
249 1 -1.8750 13.1250 -13.1250 -0.000021 0.000032 -0.000032 -0.1554 0.0233 -0.0007
250 1 -1.8750 13.1251 -9.3750 0.000025 0.000174 -0.000047 -0.1547 0.0246 0.0011
251 1 -1.8751 13.1251 -5.6250 -0.000123 0.000158 0.000004 -0.1495 0.0201 -0.0010
252 1 -1.8749 13.1250 -1.8750 0.000116 0.000065 -0.000022 -0.1555 0.0224 0.0007
253 1 -1.8750 13.1250 1.8750 0.000003 0.000019 -0.000022 -0.1532 0.0228 0.0005
254 1 -1.8749 13.1250 5.6250 0.000160 -0.000046 0.000004 -0.1583 0.0261 -0.0001
255 1 -1.8750 13.1249 9.3750 0.000031 -0.000167 0.000007 -0.1583 0.0284 -0.0010
256 1 -1.8750 13.1251 13.1250 -0.000018 0.000115 -0.000053 -0.1515 0.0191 0.0014
257 1 1.8749 -13.1250 -13.1250 -0.000124 -0.000025 0.000062 -0.7664 0.5950 -0.0041
258 1 1.8750 -13.1251 -9.3751 -0.000008 -0.000113 -0.000119 -0.7732 0.6035 0.0050
259 1 1.8750 -13.1250 -5.6250 0.000046 -0.000076 -0.000006 -0.7732 0.5965 -0.0031
260 1 1.8750 -13.1250 -1.8750 0.000054 0.000004 -0.000077 -0.7693 0.5935 0.0008
261 1 1.8750 -13.1250 1.8750 0.000032 0.000016 -0.000084 -0.7714 0.5933 0.0023
262 1 1.8750 -13.1250 5.6250 0.000039 0.000055 0.000059 -0.7709 0.5935 -0.0050
263 1 1.8751 -13.1251 9.3750 0.000146 -0.000109 -0.000089 -0.7736 0.6027 0.0045
264 1 1.8750 -13.1250 13.1250 0.000053 -0.000046 0.000015 -0.7738 0.5947 -0.0011
265 1 1.8749 -9.3750 -13.1250 -0.000135 -0.000010 -0.000037 -0.2218 0.0436 0.0002
266 1 1.8750 -9.3749 -9.3750 -0.000013 0.000239 0.000020 -0.2253 0.0393 -0.0030
267 1 1.8751 -9.3751 -5.6250 0.000135 -0.000159 -0.000100 -0.2280 0.0536 0.0038
268 1 1.8749 -9.3751 -1.8750 -0.000157 -0.000106 0.000002 -0.2203 0.0513 -0.0006
269 1 1.8750 -9.3750 1.8750 -0.000094 -0.000033 0.000078 -0.2183 0.0481 -0.0007
270 1 1.8750 -9.3750 5.6250 -0.000003 0.000036 0.000094 -0.2247 0.0469 0.0006
271 1 1.8750 -9.3750 9.3751 -0.000034 0.000057 0.000132 -0.2157 0.0426 -0.0038
272 1 1.8751 -9.3751 13.1250 0.000104 -0.000112 -0.000059 -0.2290 0.0521 0.0035
273 1 1.8749 -5.6251 -13.1250 -0.000126 -0.000193 0.000045 -0.1970 0.0064 -0.0020
274 1 1.8749 -5.6250 -9.3750 -0.000105 0.000089 -0.000077 -0.1983 0.0020 0.0009
275 1 1.8749 -5.6249 -5.6251 -0.000139 0.000137 -0.000121 -0.1970 -0.0077 0.0036
276 1 1.8750 -5.6250 -1.8750 -0.000088 0.000022 0.000062 -0.1934 -0.0028 -0.0027
277 1 1.8750 -5.6250 1.8750 -0.000069 -0.000037 0.000077 -0.1990 -0.0011 -0.0014
278 1 1.8749 -5.6250 5.6250 -0.000138 -0.000013 0.000005 -0.1953 0.0020 0.0018
279 1 1.8750 -5.6250 9.3750 -0.000009 -0.000055 0.000057 -0.2002 0.0031 -0.0014
280 1 1.8750 -5.6249 13.1250 0.000004 0.000109 0.000032 -0.2003 -0.0076 0.0009
281 1 1.8750 -1.8750 -13.1250 0.000005 0.000033 -0.000021 -0.2055 -0.0193 0.0071
282 1 1.8750 -1.8750 -9.3750 0.000058 0.000016 0.000022 -0.2022 -0.0008 -0.0025
283 1 1.8749 -1.8750 -5.6250 -0.000118 -0.000016 -0.000077 -0.2032 -0.0103 -0.0053
284 1 1.8749 -1.8750 -1.8751 -0.000102 -0.000002 -0.000140 -0.2164 -0.0375 -0.0022
285 1 1.8751 -1.8750 1.8750 0.000128 -0.000093 0.000033 -0.2281 -0.0465 -0.0022
286 1 1.8749 -1.8750 5.6250 -0.000106 0.000039 0.000075 -0.2267 -0.0485 0.0000
287 1 1.8750 -1.8750 9.3750 0.000082 0.000031 0.000087 -0.2228 -0.0496 -0.0014
288 1 1.8750 -1.8751 13.1250 0.000025 -0.000125 0.000003 -0.2177 -0.0299 0.0067
289 1 1.8751 1.8749 -13.1250 0.000100 -0.000155 0.000001 -0.3153 -0.1357 0.1024
290 1 1.8750 1.8749 -9.3750 0.000035 -0.000111 0.000021 -0.2364 -0.0524 0.0005
291 1 1.8749 1.8749 -5.6250 -0.000122 -0.000102 0.000064 -0.3110 -0.1348 -0.1013
292 1 1.8750 1.8749 -1.8750 -0.000081 -0.000125 -0.000043 -0.6752 -0.4972 -0.0962
293 1 1.8749 1.8750 1.8750 -0.000155 -0.000081 0.000008 -0.7625 -0.5889 -0.0129
294 1 1.8751 1.8750 5.6250 0.000157 0.000020 -0.000015 -0.7811 -0.5992 -0.0014
295 1 1.8750 1.8750 9.3749 0.000015 -0.000010 -0.000111 -0.7666 -0.5880 0.0177
296 1 1.8750 1.8750 13.1251 -0.000044 -0.000015 0.000168 -0.6756 -0.5022 0.0917
297 1 1.8749 5.6250 -13.1251 -0.000134 -0.000054 -0.000116 -1.1399 -0.5996 0.3888
298 1 1.8751 5.6251 -9.3750 0.000135 0.000143 -0.000011 -0.8001 -0.6049 -0.0019
299 1 1.8750 5.6251 -5.6250 0.000084 0.000137 -0.000004 -1.1488 -0.6048 -0.3826
300 1 1.8750 5.6250 -1.8749 0.000066 0.000022 0.000162 5.9972 -0.6008 -0.3926
301 1 1.8750 5.6250 1.8749 0.000074 -0.000030 -0.000103 5.6378 -0.5959 -0.0148
302 1 1.8750 5.6249 5.6251 -0.000009 -0.000224 0.000145 5.6269 -0.5869 -0.0052
303 1 1.8750 5.6250 9.3750 -0.000030 0.000024 0.000078 5.6379 -0.5965 0.0240
304 1 1.8750 5.6250 13.1250 0.000021 0.000068 -0.000008 6.0002 -0.6000 0.3847
305 1 1.8750 9.3749 -13.1250 0.000060 -0.000170 -0.000065 5.5582 -0.4507 0.1027
306 1 1.8750 9.3749 -9.3750 -0.000016 -0.000158 0.000062 5.6405 -0.5274 -0.0031
307 1 1.8750 9.3749 -5.6250 0.000012 -0.000183 0.000005 5.5584 -0.4439 -0.0973
308 1 1.8750 9.3749 -1.8750 -0.000009 -0.000140 0.000038 5.1942 -0.0877 -0.1013
309 1 1.8750 9.3750 1.8750 0.000014 -0.000025 -0.000055 5.1068 -0.0058 -0.0095
310 1 1.8750 9.3750 5.6250 0.000058 0.000030 -0.000031 5.1013 -0.0058 0.0016
311 1 1.8750 9.3750 9.3750 0.000019 -0.000033 0.000077 5.1058 -0.0013 0.0087
312 1 1.8750 9.3749 13.1250 0.000038 -0.000133 0.000007 5.1950 -0.0873 0.0992
313 1 1.8750 13.1250 -13.1250 -0.000001 -0.000051 0.000093 5.6441 0.5575 0.0043
314 1 1.8750 13.1250 -9.3750 -0.000010 0.000033 0.000018 5.6510 0.5415 -0.0027
315 1 1.8750 13.1250 -5.6251 0.000095 0.000098 -0.000212 5.6409 0.5512 0.0011
316 1 1.8750 13.1250 -1.8750 -0.000002 0.000024 -0.000028 5.6346 0.5800 -0.0091
317 1 1.8750 13.1250 1.8750 -0.000016 -0.000023 -0.000019 5.6269 0.5957 -0.0033
318 1 1.8750 13.1250 5.6249 0.000041 -0.000032 -0.000198 5.6292 0.5977 0.0040
319 1 1.8749 13.1251 9.3749 -0.000142 0.000156 -0.000122 5.6290 0.5875 0.0016
320 1 1.8751 13.1250 13.1250 0.000160 0.000005 0.000066 5.6300 0.5798 0.0031
321 1 5.6250 -13.1250 -13.1250 0.000098 -0.000079 0.000032 5.0517 -6.2929 -0.0019
322 1 5.6250 -13.1249 -9.3750 -0.000055 0.000093 -0.000087 5.0558 -6.2931 0.0043
323 1 5.6250 -13.1250 -5.6250 0.000093 -0.000037 0.000025 5.0545 -6.2942 -0.0011
324 1 5.6251 -13.1250 -1.8750 0.000216 0.000000 0.000082 5.0530 -6.2906 -0.0004
325 1 5.6250 -13.1250 1.8751 -0.000023 0.000088 0.000105 5.0558 -6.2932 -0.0031
326 1 5.6251 -13.1250 5.6250 0.000111 -0.000012 -0.000059 5.0543 -6.2926 0.0021
327 1 5.6251 -13.1250 9.3750 0.000124 -0.000042 -0.000095 5.0559 -6.2932 0.0032
328 1 5.6250 -13.1249 13.1250 -0.000011 0.000111 0.000056 5.0564 -6.2930 -0.0032
329 1 5.6250 -9.3750 -13.1249 -0.000034 -0.000055 0.000130 5.0533 0.1064 -0.0035
330 1 5.6250 -9.3750 -9.3750 0.000048 0.000056 -0.000053 5.0544 0.1041 0.0074
331 1 5.6250 -9.3750 -5.6249 0.000072 -0.000098 0.000176 5.0567 0.1103 -0.0059
332 1 5.6250 -9.3749 -1.8750 -0.000052 0.000126 0.000053 5.0527 0.0991 0.0006
333 1 5.6251 -9.3750 1.8750 0.000199 0.000061 -0.000038 5.0509 0.1046 0.0045
334 1 5.6250 -9.3750 5.6251 0.000004 0.000011 0.000136 5.0548 0.1022 -0.0038
335 1 5.6251 -9.3750 9.3750 0.000179 -0.000051 0.000091 5.0522 0.1108 0.0011
336 1 5.6250 -9.3750 13.1250 -0.000087 0.000076 0.000094 5.0582 0.1060 0.0010
337 1 5.6250 -5.6250 -13.1251 0.000030 0.000009 -0.000117 5.0523 0.0025 0.0055
338 1 5.6250 -5.6250 -9.3749 0.000038 -0.000090 0.000114 5.0527 0.0015 -0.0044
339 1 5.6250 -5.6250 -5.6250 0.000058 0.000091 0.000082 5.0519 -0.0076 0.0006
340 1 5.6250 -5.6251 -1.8750 0.000085 -0.000150 0.000064 5.0526 0.0075 0.0007
341 1 5.6250 -5.6250 1.8750 -0.000031 -0.000050 0.000078 5.0542 0.0021 0.0020
342 1 5.6250 -5.6251 5.6251 -0.000029 -0.000165 0.000183 5.0535 0.0074 -0.0041
343 1 5.6249 -5.6249 9.3750 -0.000113 0.000214 0.000032 5.0563 -0.0090 0.0017
344 1 5.6251 -5.6250 13.1250 0.000194 0.000014 -0.000025 5.0527 0.0014 -0.0010
345 1 5.6250 -1.8749 -13.1250 0.000096 0.000193 -0.000073 5.0537 -0.0309 0.0169
346 1 5.6250 -1.8751 -9.3750 0.000049 -0.000130 0.000064 5.0556 0.0021 -0.0065
347 1 5.6250 -1.8751 -5.6251 -0.000088 -0.000154 -0.000153 5.0542 -0.0191 -0.0046
348 1 5.6250 -1.8750 -1.8750 -0.000014 0.000009 0.000059 5.0535 -0.0854 -0.0185
349 1 5.6250 -1.8750 1.8749 0.000048 -0.000060 -0.000100 5.0572 -0.1038 0.0016
350 1 5.6249 -1.8749 5.6249 -0.000115 0.000101 -0.000142 5.0549 -0.1097 0.0034
351 1 5.6251 -1.8750 9.3750 0.000116 -0.000058 0.000034 5.0553 -0.1000 -0.0027
352 1 5.6251 -1.8750 13.1250 0.000131 0.000042 0.000069 5.0534 -0.0838 0.0091
353 1 5.6251 1.8750 -13.1249 0.000194 -0.000040 0.000172 5.0543 -0.4742 0.3792
354 1 5.6250 1.8750 -9.3749 0.000008 -0.000034 0.000105 5.0556 -0.1290 -0.0013
355 1 5.6250 1.8749 -5.6250 0.000100 -0.000118 -0.000043 5.0516 -0.4795 -0.3844
356 1 5.6250 1.8750 -1.8751 0.000087 -0.000026 -0.000136 5.0525 6.6670 -0.3790
357 1 5.6250 1.8750 1.8751 0.000004 0.000060 0.000128 5.0523 6.3028 -0.0335
358 1 5.6250 1.8751 5.6249 -0.000063 0.000142 -0.000148 5.0593 6.2926 0.0105
359 1 5.6250 1.8750 9.3751 -0.000005 0.000015 0.000150 5.0556 6.3035 0.0137
360 1 5.6250 1.8750 13.1249 0.000053 -0.000034 -0.000131 5.0534 6.6675 0.3957
361 1 5.6250 5.6250 -13.1251 -0.000010 -0.000002 -0.000170 5.0528 6.2922 -7.0838
362 1 5.6250 5.6251 -9.3750 -0.000001 0.000117 0.000053 5.0578 6.2905 -0.0034
363 1 5.6250 5.6250 -5.6250 0.000053 -0.000079 0.000088 5.0560 6.2918 7.0871
ITEM: TIMESTEP
10
ITEM: NUMBER OF ATOMS
363
ITEM: BOX BOUNDS pp pp pp
-15.000000 15.000000
-15.000000 15.000000
-15.000000 15.000000
ITEM: ATOMS id type xu yu zu vx vy vz fx fy fz
1 1 -13.1246 -13.1260 -13.1252 -0.000021 -0.000186 -0.000031 -5.0584 0.0413 -0.0020
2 1 -13.1257 -13.1243 -9.3750 -0.000208 0.000124 -0.000004 -5.0306 -0.0322 0.0122
3 1 -13.1249 -13.1256 -5.6244 -0.000069 -0.000108 0.000105 -5.0707 0.0722 -0.0289
4 1 -13.1250 -13.1248 -1.8747 -0.000085 0.000034 0.000055 -5.0673 -0.0334 -0.0166
5 1 -13.1255 -13.1250 1.8745 -0.000182 -0.000005 -0.000082 -5.0496 0.0168 0.0577
6 1 -13.1255 -13.1256 5.6255 -0.000185 -0.000110 0.000085 -5.0210 0.0280 -0.0557