ITEM: TIMESTEP
0
ITEM: NUMBER OF ATOMS
363
ITEM: BOX BOUNDS pp pp pp
-15.000000 15.000000
-15.000000 15.000000
-15.000000 15.000000
ITEM: ATOMS id type xu yu zu vx vy vz fx fy fz
1 1 -13.1250 -13.1248 -13.1249 -0.000024 0.000125 0.000046 -5.0545 -0.0122 0.0065
2 1 -13.1252 -13.1253 -9.3748 -0.000107 -0.000149 0.000113 -5.0528 0.0336 -0.0081
3 1 -13.1251 -13.1252 -5.6249 -0.000071 -0.000096 0.000033 -5.0528 0.0238 0.0051
4 1 -13.1254 -13.1253 -1.8750 -0.000238 -0.000134 0.000021 -5.0470 0.0169 -0.0040
5 1 -13.1252 -13.1252 1.8749 -0.000133 -0.000099 -0.000040 -5.0488 0.0155 0.0028
6 1 -13.1251 -13.1252 5.6249 -0.000081 -0.000124 -0.000064 -5.0523 0.0081 0.0098
7 1 -13.1250 -13.1248 9.3751 -0.000016 0.000082 0.000050 -5.0441 -0.0142 -0.0070
8 1 -13.1250 -13.1248 13.1251 -0.000054 0.000096 0.000053 -5.0536 -0.0261 0.0001
9 1 -13.1250 -9.3749 -13.1251 -0.000016 0.000055 -0.000044 -5.0580 0.0013 -0.0076
10 1 -13.1253 -9.3748 -9.3751 -0.000183 0.000114 -0.000056 -5.0464 -0.0252 0.0022
11 1 -13.1254 -9.3749 -5.6250 -0.000209 0.000062 -0.000014 -5.0446 -0.0147 0.0044
12 1 -13.1250 -9.3750 -1.8748 -0.000033 -0.000006 0.000083 -5.0544 -0.0074 -0.0129
13 1 -13.1250 -9.3749 1.8750 -0.000029 0.000069 -0.000006 -5.0484 -0.0169 -0.0008
14 1 -13.1254 -9.3750 5.6248 -0.000251 -0.000001 -0.000109 -5.0474 0.0023 0.0086
15 1 -13.1253 -9.3752 9.3748 -0.000177 -0.000083 -0.000078 -5.0614 0.0219 -0.0066
16 1 -13.1250 -9.3752 13.1248 -0.000044 -0.000084 -0.000122 -5.0587 0.0162 0.0073
17 1 -13.1252 -5.6250 -13.1252 -0.000136 -0.000008 -0.000123 -5.0429 -0.0005 0.0300
18 1 -13.1250 -5.6250 -9.3748 -0.000037 0.000021 0.000108 -5.0587 0.0002 -0.0260
19 1 -13.1250 -5.6250 -5.6251 -0.000028 0.000015 -0.000042 -5.0557 -0.0035 0.0133
20 1 -13.1251 -5.6249 -1.8750 -0.000091 0.000026 0.000004 -5.0691 0.0010 -0.0088
21 1 -13.1247 -5.6250 1.8748 0.000141 -0.000005 -0.000076 -5.0704 0.0092 0.0196
22 1 -13.1252 -5.6247 5.6253 -0.000147 0.000150 0.000131 -5.0294 -0.0209 -0.0274
23 1 -13.1248 -5.6249 9.3749 0.000068 0.000069 -0.000058 -5.0516 -0.0076 0.0232
24 1 -13.1250 -5.6251 13.1251 -0.000041 -0.000026 0.000060 -5.0507 0.0040 -0.0204
25 1 -13.1249 -1.8752 -13.1250 0.000006 -0.000086 0.000012 -5.0622 0.0121 -0.0084
26 1 -13.1249 -1.8751 -9.3752 -0.000006 -0.000074 -0.000099 -5.0567 0.0018 0.0195
27 1 -13.1253 -1.8752 -5.6249 -0.000194 -0.000081 0.000070 -5.0435 0.0112 -0.0275
28 1 -13.1250 -1.8749 -1.8753 -0.000046 0.000072 -0.000147 -5.0374 -0.0073 0.0320
29 1 -13.1253 -1.8749 1.8752 -0.000163 0.000051 0.000097 -5.0478 -0.0164 -0.0180
30 1 -13.1253 -1.8750 5.6251 -0.000171 -0.000005 0.000075 -5.0371 0.0066 -0.0071
31 1 -13.1253 -1.8748 9.3749 -0.000184 0.000114 -0.000040 -5.0517 -0.0061 0.0098
32 1 -13.1253 -1.8748 13.1250 -0.000180 0.000097 -0.000008 -5.0452 -0.0042 -0.0015
33 1 -13.1249 1.8750 -13.1250 0.000011 0.000012 -0.000011 -5.0540 -0.0201 -0.0084
34 1 -13.1253 1.8747 -9.3752 -0.000162 -0.000146 -0.000090 -5.0404 0.0150 0.0129
35 1 -13.1251 1.8750 -5.6249 -0.000076 -0.000009 0.000028 -5.0427 -0.0087 -0.0080
36 1 -13.1250 1.8750 -1.8749 -0.000052 0.000011 0.000036 -5.0738 0.0118 -0.0003
37 1 -13.1250 1.8748 1.8751 -0.000012 -0.000123 0.000028 -5.0589 0.0208 0.0078
38 1 -13.1251 1.8749 5.6253 -0.000064 -0.000066 0.000126 -5.0552 0.0029 -0.0061
39 1 -13.1250 1.8751 9.3752 -0.000010 0.000063 0.000105 -5.0552 -0.0110 -0.0077
40 1 -13.1250 1.8753 13.1249 -0.000014 0.000146 -0.000042 -5.0528 -0.0160 0.0125
41 1 -13.1251 5.6247 -13.1247 -0.000078 -0.000171 0.000136 -5.0595 0.0265 -0.0150
42 1 -13.1249 5.6250 -9.3750 0.000003 0.000004 0.000009 -5.0652 -0.0158 0.0054
43 1 -13.1252 5.6249 -5.6251 -0.000153 -0.000056 -0.000057 -5.0424 0.0162 0.0127
44 1 -13.1252 5.6252 -1.8749 -0.000136 0.000095 0.000054 -5.0508 -0.0058 -0.0124
45 1 -13.1251 5.6250 1.8750 -0.000095 0.000006 -0.000012 -5.0430 -0.0131 -0.0103
46 1 -13.1250 5.6248 5.6246 -0.000053 -0.000075 -0.000211 -5.0523 0.0127 0.0266
47 1 -13.1252 5.6247 9.3750 -0.000143 -0.000142 -0.000009 -5.0352 0.0293 -0.0120
48 1 -13.1247 5.6249 13.1251 0.000099 -0.000045 0.000027 -5.0635 0.0199 0.0060
49 1 -13.1252 9.3751 -13.1250 -0.000151 0.000036 -0.000001 -5.0429 -0.0169 -0.0125
50 1 -13.1248 9.3749 -9.3751 0.000070 -0.000071 -0.000066 -5.0544 0.0143 0.0092
51 1 -13.1252 9.3753 -5.6250 -0.000138 0.000133 0.000000 -5.0427 -0.0168 0.0019
52 1 -13.1250 9.3752 -1.8748 -0.000048 0.000087 0.000090 -5.0652 -0.0053 -0.0100
53 1 -13.1251 9.3749 1.8751 -0.000075 -0.000051 0.000033 -5.0560 0.0024 -0.0036
54 1 -13.1251 9.3752 5.6248 -0.000068 0.000095 -0.000095 -5.0420 -0.0270 0.0118
55 1 -13.1251 9.3751 9.3749 -0.000063 0.000073 -0.000057 -5.0490 -0.0174 -0.0065
56 1 -13.1251 9.3751 13.1248 -0.000068 0.000033 -0.000100 -5.0563 -0.0144 0.0088
57 1 -13.1248 13.1250 -13.1250 0.000048 0.000005 -0.000007 -5.0569 0.0112 0.0012
58 1 -13.1249 13.1252 -9.3751 0.000036 0.000075 -0.000075 -5.0678 -0.0268 0.0160
59 1 -13.1254 13.1251 -5.6248 -0.000244 0.000074 0.000091 -5.0283 -0.0073 -0.0158
60 1 -13.1248 13.1250 -1.8750 0.000076 -0.000012 0.000022 -5.0714 -0.0016 -0.0046
61 1 -13.1249 13.1249 1.8748 -0.000006 -0.000058 -0.000105 -5.0513 -0.0031 0.0203
62 1 -13.1255 13.1248 5.6251 -0.000294 -0.000115 0.000068 -5.0412 0.0133 -0.0128
63 1 -13.1253 13.1251 9.3751 -0.000171 0.000038 0.000051 -5.0495 0.0069 0.0037
64 1 -13.1249 13.1248 13.1252 0.000002 -0.000082 0.000078 -5.0430 0.0198 -0.0070
65 1 -9.3750 -13.1250 -13.1250 0.000014 0.000009 -0.000004 0.2073 -0.0007 -0.0130
66 1 -9.3751 -13.1250 -9.3753 -0.000031 0.000017 -0.000169 0.2125 0.0005 0.0230
67 1 -9.3751 -13.1250 -5.6249 -0.000030 0.000017 0.000031 0.1816 0.0075 -0.0115
68 1 -9.3751 -13.1249 -1.8749 -0.000051 0.000075 0.000061 0.1982 -0.0171 -0.0128
69 1 -9.3750 -13.1251 1.8748 -0.000004 -0.000062 -0.000084 0.1955 0.0113 0.0131
70 1 -9.3751 -13.1249 5.6249 -0.000027 0.000047 -0.000032 0.2012 -0.0115 -0.0076
71 1 -9.3747 -13.1249 9.3749 0.000145 0.000050 -0.000072 0.1851 0.0050 0.0065
72 1 -9.3750 -13.1249 13.1250 0.000010 0.000049 0.000007 0.1945 0.0076 -0.0068
73 1 -9.3751 -9.3750 -13.1248 -0.000038 -0.000010 0.000084 0.2138 -0.0106 -0.0159
74 1 -9.3750 -9.3750 -9.3749 -0.000012 0.000006 0.000031 0.1958 -0.0004 -0.0089
75 1 -9.3750 -9.3749 -5.6253 -0.000003 0.000074 -0.000157 0.1950 -0.0123 0.0290
76 1 -9.3750 -9.3751 -1.8748 -0.000013 -0.000026 0.000092 0.2090 0.0106 -0.0253
77 1 -9.3748 -9.3750 1.8750 0.000084 -0.000010 -0.000012 0.1784 -0.0131 0.0039
78 1 -9.3752 -9.3752 5.6249 -0.000080 -0.000093 -0.000065 0.1914 0.0141 0.0130
79 1 -9.3754 -9.3747 9.3751 -0.000201 0.000149 0.000067 0.2206 -0.0119 -0.0203
80 1 -9.3751 -9.3748 13.1248 -0.000065 0.000077 -0.000115 0.2114 -0.0054 0.0269
81 1 -9.3748 -5.6253 -13.1253 0.000088 -0.000165 -0.000134 0.1799 0.0175 0.0146
82 1 -9.3751 -5.6250 -9.3750 -0.000062 -0.000001 -0.000000 0.2009 -0.0114 -0.0039
83 1 -9.3751 -5.6251 -5.6248 -0.000026 -0.000050 0.000086 0.2007 0.0130 -0.0152
84 1 -9.3754 -5.6249 -1.8751 -0.000222 0.000027 -0.000069 0.2243 0.0051 0.0151
85 1 -9.3752 -5.6253 1.8750 -0.000083 -0.000140 -0.000001 0.2293 0.0149 -0.0055
86 1 -9.3745 -5.6250 5.6250 0.000256 -0.000015 -0.000015 0.1444 -0.0070 -0.0115
87 1 -9.3748 -5.6249 9.3747 0.000106 0.000042 -0.000172 0.1958 0.0103 0.0175
88 1 -9.3749 -5.6250 13.1249 0.000046 0.000010 -0.000045 0.1974 0.0062 -0.0169
89 1 -9.3751 -1.8751 -13.1253 -0.000073 -0.000040 -0.000157 0.2121 -0.0186 0.0307
90 1 -9.3750 -1.8753 -9.3750 -0.000011 -0.000166 -0.000015 0.1987 0.0172 -0.0148
91 1 -9.3749 -1.8750 -5.6251 0.000034 0.000010 -0.000056 0.1854 -0.0019 0.0049
92 1 -9.3746 -1.8747 -1.8750 0.000208 0.000130 0.000002 0.1877 -0.0217 -0.0054
93 1 -9.3750 -1.8750 1.8749 0.000004 -0.000025 -0.000025 0.1776 0.0001 0.0080
94 1 -9.3748 -1.8751 5.6251 0.000116 -0.000028 0.000071 0.1707 0.0039 -0.0109
95 1 -9.3752 -1.8749 9.3750 -0.000077 0.000063 -0.000003 0.1947 -0.0103 0.0155
96 1 -9.3750 -1.8750 13.1253 0.000014 0.000012 0.000129 0.1934 -0.0035 -0.0278
97 1 -9.3749 1.8747 -13.1254 0.000046 -0.000166 -0.000192 0.2108 0.0212 0.0371
98 1 -9.3748 1.8749 -9.3746 0.000108 -0.000065 0.000177 0.1796 0.0004 -0.0302
99 1 -9.3748 1.8751 -5.6248 0.000112 0.000036 0.000083 0.1799 -0.0029 0.0065
100 1 -9.3755 1.8748 -1.8749 -0.000271 -0.000090 0.000041 0.2408 0.0305 0.0026
101 1 -9.3751 1.8752 1.8751 -0.000048 0.000105 0.000026 0.2158 -0.0263 -0.0069
102 1 -9.3751 1.8750 5.6248 -0.000028 0.000021 -0.000097 0.1936 -0.0048 0.0165
103 1 -9.3750 1.8749 9.3751 0.000006 -0.000064 0.000045 0.1998 0.0134 -0.0153
104 1 -9.3749 1.8749 13.1250 0.000050 -0.000028 -0.000020 0.2012 0.0134 -0.0100
105 1 -9.3752 5.6251 -13.1253 -0.000088 0.000036 -0.000144 0.2035 -0.0167 0.0268
106 1 -9.3752 5.6251 -9.3751 -0.000114 0.000039 -0.000041 0.2175 -0.0041 -0.0153
107 1 -9.3749 5.6250 -5.6253 0.000068 0.000006 -0.000125 0.1809 0.0034 0.0086
108 1 -9.3751 5.6253 -1.8751 -0.000032 0.000132 -0.000056 0.2099 -0.0296 -0.0066
109 1 -9.3748 5.6247 1.8749 0.000107 -0.000159 -0.000054 0.1795 0.0248 0.0041
110 1 -9.3750 5.6250 5.6250 0.000013 -0.000005 0.000000 0.1966 0.0051 -0.0097
111 1 -9.3746 5.6250 9.3748 0.000193 0.000018 -0.000103 0.1666 -0.0110 0.0243
112 1 -9.3750 5.6252 13.1253 -0.000019 0.000121 0.000147 0.2079 -0.0156 -0.0369
113 1 -9.3748 9.3750 -13.1251 0.000078 -0.000002 -0.000074 0.1700 0.0038 0.0070
114 1 -9.3748 9.3751 -9.3750 0.000085 0.000065 -0.000023 0.1884 -0.0029 -0.0059
115 1 -9.3748 9.3751 -5.6251 0.000076 0.000031 -0.000044 0.1825 -0.0002 0.0147
116 1 -9.3753 9.3748 -1.8747 -0.000155 -0.000081 0.000129 0.2347 0.0144 -0.0388
117 1 -9.3751 9.3749 1.8745 -0.000047 -0.000043 -0.000254 0.1980 -0.0020 0.0356
118 1 -9.3747 9.3751 5.6248 0.000135 0.000028 -0.000085 0.1798 -0.0037 -0.0140
119 1 -9.3749 9.3749 9.3748 0.000047 -0.000044 -0.000087 0.1771 0.0076 0.0039
120 1 -9.3751 9.3751 13.1250 -0.000039 0.000033 -0.000025 0.2133 0.0129 -0.0091
121 1 -9.3749 13.1251 -13.1250 0.000041 0.000029 0.000014 0.2178 -0.0040 0.0001
122 1 -9.3752 13.1251 -9.3749 -0.000121 0.000030 0.000035 0.2169 0.0014 -0.0109
123 1 -9.3746 13.1251 -5.6252 0.000202 0.000061 -0.000117 0.1595 -0.0048 0.0227
124 1 -9.3753 13.1248 -1.8749 -0.000152 -0.000082 0.000070 0.2284 0.0100 -0.0137
125 1 -9.3749 13.1251 1.8751 0.000057 0.000055 0.000068 0.1991 -0.0146 0.0022
126 1 -9.3750 13.1250 5.6251 -0.000022 0.000002 0.000064 0.1799 0.0054 -0.0006
127 1 -9.3751 13.1250 9.3751 -0.000040 0.000021 0.000036 0.1981 -0.0031 -0.0014
128 1 -9.3746 13.1252 13.1250 0.000186 0.000116 -0.000024 0.1723 -0.0088 0.0070
129 1 -5.6248 -13.1250 -13.1247 0.000107 -0.000002 0.000144 -0.0037 -0.0066 -0.0036
130 1 -5.6247 -13.1250 -9.3748 0.000171 0.000020 0.000083 -0.0342 0.0035 0.0037
131 1 -5.6255 -13.1250 -5.6249 -0.000264 0.000021 0.000042 0.0350 0.0115 0.0084
132 1 -5.6249 -13.1250 -1.8748 0.000072 0.000006 0.000106 -0.0167 -0.0002 -0.0155
133 1 -5.6249 -13.1249 1.8749 0.000025 0.000058 -0.000047 -0.0072 -0.0102 0.0192
134 1 -5.6250 -13.1254 5.6251 0.000007 -0.000195 0.000071 -0.0095 0.0292 -0.0041
135 1 -5.6250 -13.1248 9.3752 0.000011 0.000078 0.000123 0.0109 -0.0141 -0.0020
136 1 -5.6251 -13.1252 13.1252 -0.000029 -0.000082 0.000107 -0.0056 0.0006 0.0062
137 1 -5.6248 -9.3752 -13.1252 0.000098 -0.000089 -0.000122 -0.0135 0.0193 0.0224
138 1 -5.6249 -9.3748 -9.3748 0.000056 0.000075 0.000078 -0.0073 0.0004 -0.0183
139 1 -5.6248 -9.3749 -5.6250 0.000089 0.000074 0.000015 -0.0102 -0.0134 0.0220
140 1 -5.6249 -9.3748 -1.8745 0.000075 0.000079 0.000235 -0.0182 -0.0161 -0.0335
141 1 -5.6253 -9.3752 1.8749 -0.000167 -0.000088 -0.000052 0.0350 0.0203 0.0272
142 1 -5.6251 -9.3750 5.6251 -0.000044 0.000021 0.000036 0.0043 -0.0191 -0.0123
143 1 -5.6249 -9.3751 9.3749 0.000066 -0.000037 -0.000060 -0.0192 0.0061 0.0124
144 1 -5.6249 -9.3752 13.1251 0.000033 -0.000106 0.000032 -0.0187 -0.0004 -0.0169
145 1 -5.6251 -5.6248 -13.1249 -0.000027 0.000107 0.000074 0.0171 -0.0175 -0.0078
146 1 -5.6252 -5.6248 -9.3749 -0.000102 0.000122 0.000037 0.0131 -0.0169 -0.0081
147 1 -5.6251 -5.6251 -5.6252 -0.000064 -0.000064 -0.000106 0.0002 0.0147 0.0148
148 1 -5.6250 -5.6252 -1.8750 -0.000005 -0.000084 -0.000007 -0.0136 0.0137 -0.0090
149 1 -5.6249 -5.6249 1.8750 0.000067 0.000067 -0.000020 -0.0053 -0.0137 0.0041
150 1 -5.6254 -5.6251 5.6250 -0.000194 -0.000044 0.000022 0.0377 0.0058 -0.0017
151 1 -5.6250 -5.6251 9.3751 0.000015 -0.000055 0.000036 0.0101 0.0031 -0.0053
152 1 -5.6249 -5.6252 13.1249 0.000054 -0.000108 -0.000041 0.0010 0.0145 0.0136
153 1 -5.6250 -1.8749 -13.1252 -0.000004 0.000033 -0.000123 -0.0120 0.0112 0.0228
154 1 -5.6251 -1.8752 -9.3747 -0.000074 -0.000089 0.000162 0.0121 0.0172 -0.0247
155 1 -5.6249 -1.8750 -5.6249 0.000029 0.000009 0.000073 -0.0043 -0.0067 -0.0024
156 1 -5.6246 -1.8751 -1.8752 0.000178 -0.000042 -0.000086 -0.0025 -0.0016 0.0219
157 1 -5.6253 -1.8750 1.8752 -0.000163 0.000002 0.000079 0.0211 0.0019 -0.0165
158 1 -5.6251 -1.8751 5.6250 -0.000057 -0.000027 -0.000003 0.0169 -0.0023 0.0102
159 1 -5.6251 -1.8750 9.3751 -0.000050 -0.000019 0.000057 -0.0060 0.0092 -0.0131
160 1 -5.6249 -1.8748 13.1249 0.000069 0.000115 -0.000068 -0.0092 -0.0149 0.0033
161 1 -5.6247 1.8752 -13.1248 0.000173 0.000103 0.000082 -0.0300 -0.0152 0.0023
162 1 -5.6249 1.8749 -9.3750 0.000033 -0.000052 0.000021 0.0118 -0.0098 -0.0053
163 1 -5.6251 1.8750 -5.6252 -0.000046 -0.000017 -0.000097 0.0029 0.0077 0.0213
164 1 -5.6248 1.8750 -1.8748 0.000100 -0.000001 0.000111 -0.0297 -0.0036 -0.0292
165 1 -5.6248 1.8749 1.8748 0.000087 -0.000048 -0.000102 -0.0170 0.0077 0.0310
166 1 -5.6252 1.8749 5.6253 -0.000108 -0.000032 0.000132 0.0181 0.0014 -0.0136
167 1 -5.6250 1.8753 9.3753 -0.000014 0.000157 0.000140 0.0030 -0.0097 0.0013
168 1 -5.6248 1.8752 13.1253 0.000079 0.000101 0.000145 -0.0174 -0.0044 -0.0018
169 1 -5.6251 5.6249 -13.1249 -0.000070 -0.000061 0.000032 0.0101 0.0255 -0.0103
170 1 -5.6250 5.6247 -9.3750 -0.000001 -0.000129 0.000020 -0.0018 0.0080 0.0019
171 1 -5.6251 5.6251 -5.6250 -0.000025 0.000069 0.000018 0.0080 -0.0008 0.0034
172 1 -5.6247 5.6250 -1.8749 0.000158 -0.000019 0.000032 -0.0244 -0.0038 -0.0038
173 1 -5.6251 5.6250 1.8750 -0.000040 0.000024 -0.000017 0.0173 -0.0015 -0.0044
174 1 -5.6250 5.6250 5.6248 0.000007 -0.000005 -0.000123 -0.0024 -0.0061 0.0225
175 1 -5.6250 5.6253 9.3752 -0.000012 0.000157 0.000116 0.0237 0.0000 -0.0320
176 1 -5.6251 5.6250 13.1248 -0.000062 0.000009 -0.000103 -0.0077 0.0124 0.0224
177 1 -5.6253 9.3753 -13.1252 -0.000157 0.000137 -0.000093 0.0222 -0.0222 0.0297
178 1 -5.6253 9.3749 -9.3747 -0.000125 -0.000052 0.000128 0.0293 -0.0038 -0.0312
179 1 -5.6250 9.3752 -5.6252 0.000002 0.000117 -0.000109 0.0120 -0.0013 0.0205
180 1 -5.6246 9.3749 -1.8751 0.000197 -0.000066 -0.000044 -0.0481 0.0024 0.0026
181 1 -5.6251 9.3751 1.8751 -0.000066 0.000051 0.000074 -0.0101 -0.0021 -0.0112
182 1 -5.6250 9.3749 5.6250 -0.000016 -0.000056 0.000019 -0.0001 0.0088 -0.0017
183 1 -5.6254 9.3752 9.3749 -0.000197 0.000119 -0.000071 0.0373 -0.0058 0.0179
184 1 -5.6247 9.3752 13.1252 0.000148 0.000098 0.000106 -0.0192 -0.0145 -0.0245
185 1 -5.6245 13.1250 -13.1253 0.000228 0.000007 -0.000151 -0.0301 0.0090 0.0099
186 1 -5.6251 13.1250 -9.3751 -0.000046 0.000007 -0.000054 -0.0057 -0.0041 -0.0103
187 1 -5.6250 13.1252 -5.6251 -0.000003 0.000115 -0.000070 0.0103 -0.0046 0.0134
188 1 -5.6250 13.1249 -1.8748 0.000007 -0.000061 0.000109 -0.0111 0.0030 -0.0123
189 1 -5.6249 13.1251 1.8752 0.000039 0.000032 0.000105 0.0021 0.0038 -0.0017
190 1 -5.6251 13.1251 5.6251 -0.000054 0.000041 0.000058 0.0239 -0.0242 0.0046
191 1 -5.6249 13.1250 9.3751 0.000046 -0.000016 0.000073 0.0017 0.0164 -0.0108
192 1 -5.6252 13.1250 13.1249 -0.000096 -0.000014 -0.000070 0.0337 0.0024 0.0025
193 1 -1.8747 -13.1246 -13.1250 0.000150 0.000177 -0.000007 -0.0666 0.0031 -0.0021
194 1 -1.8753 -13.1251 -9.3750 -0.000138 -0.000060 0.000016 -0.0094 0.0383 -0.0033
195 1 -1.8749 -13.1253 -5.6250 0.000055 -0.000151 0.000001 -0.0833 0.0368 0.0007
196 1 -1.8751 -13.1248 -1.8750 -0.000059 0.000100 0.000007 -0.0373 0.0172 -0.0013
197 1 -1.8751 -13.1252 1.8750 -0.000049 -0.000100 -0.000005 -0.0359 0.0395 0.0065
198 1 -1.8752 -13.1249 5.6251 -0.000090 0.000038 0.000063 -0.0419 0.0077 -0.0149
199 1 -1.8750 -13.1246 9.3748 0.000024 0.000182 -0.000084 -0.0540 0.0079 0.0121
200 1 -1.8753 -13.1247 13.1249 -0.000130 0.000145 -0.000042 -0.0203 0.0050 -0.0009
201 1 -1.8749 -9.3749 -13.1249 0.000037 0.000046 0.000058 -0.0050 0.0060 -0.0249
202 1 -1.8749 -9.3748 -9.3751 0.000027 0.000087 -0.000056 0.0008 -0.0194 0.0127
203 1 -1.8750 -9.3751 -5.6249 0.000009 -0.000029 0.000033 0.0078 -0.0073 -0.0130
204 1 -1.8752 -9.3750 -1.8751 -0.000105 0.000006 -0.000059 0.0191 -0.0010 0.0022
205 1 -1.8748 -9.3749 1.8748 0.000104 0.000035 -0.000091 -0.0195 -0.0214 -0.0059
206 1 -1.8749 -9.3752 5.6246 0.000047 -0.000084 -0.000184 -0.0189 0.0093 0.0130
207 1 -1.8749 -9.3749 9.3749 0.000059 0.000073 -0.000053 -0.0055 0.0086 -0.0203
208 1 -1.8752 -9.3750 13.1246 -0.000121 0.000010 -0.000198 0.0177 0.0091 0.0259
209 1 -1.8748 -5.6250 -13.1253 0.000101 -0.000013 -0.000155 -0.0113 0.0164 0.0334
210 1 -1.8749 -5.6251 -9.3748 0.000058 -0.000044 0.000097 -0.0192 0.0140 -0.0227
211 1 -1.8752 -5.6250 -5.6250 -0.000083 0.000006 0.000017 0.0030 -0.0011 0.0068
212 1 -1.8749 -5.6252 -1.8750 0.000044 -0.000103 0.000015 -0.0068 0.0206 -0.0052
213 1 -1.8748 -5.6253 1.8749 0.000103 -0.000135 -0.000071 -0.0054 0.0164 0.0145
214 1 -1.8752 -5.6251 5.6251 -0.000084 -0.000050 0.000048 -0.0143 -0.0014 -0.0185
215 1 -1.8749 -5.6249 9.3748 0.000052 0.000055 -0.000103 0.0036 0.0022 0.0230
216 1 -1.8749 -5.6250 13.1252 0.000067 -0.000008 0.000079 -0.0083 -0.0045 -0.0289
217 1 -1.8752 -1.8747 -13.1250 -0.000085 0.000157 -0.000022 0.0087 -0.0213 0.0050
218 1 -1.8749 -1.8749 -9.3749 0.000044 0.000032 0.000044 -0.0083 -0.0013 -0.0183
219 1 -1.8751 -1.8750 -5.6253 -0.000040 0.000010 -0.000136 0.0053 0.0015 0.0233
220 1 -1.8749 -1.8748 -1.8749 0.000068 0.000076 0.000043 0.0002 -0.0241 -0.0127
221 1 -1.8750 -1.8751 1.8751 0.000011 -0.000058 0.000039 -0.0276 0.0057 -0.0114
222 1 -1.8750 -1.8751 5.6247 -0.000014 -0.000026 -0.000130 -0.0084 -0.0026 0.0093
223 1 -1.8752 -1.8749 9.3747 -0.000089 0.000045 -0.000141 0.0072 -0.0098 0.0063
224 1 -1.8750 -1.8752 13.1250 -0.000012 -0.000087 -0.000022 0.0172 -0.0018 -0.0100
225 1 -1.8753 1.8750 -13.1250 -0.000148 -0.000001 0.000007 0.0195 0.0139 0.0135
226 1 -1.8748 1.8752 -9.3750 0.000107 0.000083 0.000001 -0.0157 0.0014 0.0005
227 1 -1.8753 1.8751 -5.6250 -0.000145 0.000038 0.000002 0.0004 -0.0107 -0.0057
228 1 -1.8749 1.8748 -1.8750 0.000068 -0.000099 -0.000013 -0.0324 0.0094 -0.0033
229 1 -1.8751 1.8752 1.8750 -0.000038 0.000117 0.000009 -0.0468 -0.0534 -0.0029
230 1 -1.8748 1.8749 5.6250 0.000087 -0.000043 -0.000010 -0.0634 -0.0264 0.0130
231 1 -1.8750 1.8748 9.3753 0.000006 -0.000119 0.000154 -0.0520 -0.0072 -0.0116
232 1 -1.8753 1.8747 13.1253 -0.000137 -0.000142 0.000126 -0.0144 -0.0063 0.0007
233 1 -1.8748 5.6252 -13.1249 0.000098 0.000111 0.000074 -0.0814 -0.0297 -0.0100
234 1 -1.8748 5.6253 -9.3754 0.000078 0.000126 -0.000208 -0.0596 -0.0281 0.0223
235 1 -1.8750 5.6250 -5.6253 0.000003 -0.000007 -0.000134 -0.0740 -0.0181 -0.0097
236 1 -1.8750 5.6253 -1.8750 -0.000009 0.000128 0.000006 -0.1100 -0.0544 -0.0218
237 1 -1.8749 5.6247 1.8750 0.000065 -0.000145 0.000015 -0.1560 0.0081 0.0000
238 1 -1.8751 5.6248 5.6251 -0.000037 -0.000084 0.000029 -0.1541 -0.0080 0.0028
239 1 -1.8748 5.6249 9.3752 0.000093 -0.000032 0.000076 -0.1635 -0.0134 -0.0054
240 1 -1.8754 5.6250 13.1251 -0.000182 -0.000008 0.000051 -0.1034 -0.0290 0.0167
241 1 -1.8751 9.3752 -13.1248 -0.000042 0.000121 0.000107 -0.1675 -0.0274 -0.0197
242 1 -1.8748 9.3752 -9.3751 0.000081 0.000087 -0.000026 -0.1642 -0.0258 0.0158
243 1 -1.8748 9.3751 -5.6249 0.000088 0.000037 0.000059 -0.1785 -0.0286 -0.0212
244 1 -1.8753 9.3748 -1.8752 -0.000142 -0.000101 -0.000091 -0.1341 0.0216 0.0189
245 1 -1.8754 9.3751 1.8752 -0.000193 0.000073 0.000116 -0.1860 -0.0196 -0.0204
246 1 -1.8754 9.3752 5.6250 -0.000181 0.000098 0.000017 -0.1755 -0.0254 0.0083
247 1 -1.8748 9.3754 9.3751 0.000123 0.000198 0.000027 -0.2181 -0.0263 -0.0119
248 1 -1.8750 9.3751 13.1247 0.000014 0.000073 -0.000138 -0.1675 -0.0174 0.0335
249 1 -1.8751 13.1250 -13.1251 -0.000056 -0.000013 -0.000041 -0.1247 0.0484 0.0099
250 1 -1.8750 13.1250 -9.3750 -0.000019 0.000005 0.000010 -0.1496 0.0251 -0.0003
251 1 -1.8752 13.1249 -5.6249 -0.000087 -0.000056 0.000047 -0.1387 0.0221 -0.0037
252 1 -1.8749 13.1251 -1.8750 0.000030 0.000063 0.000023 -0.1502 0.0163 0.0021
253 1 -1.8749 13.1250 1.8750 0.000033 0.000016 0.000020 -0.1557 0.0196 0.0040
254 1 -1.8745 13.1248 5.6252 0.000255 -0.000078 0.000082 -0.1815 0.0437 -0.0088
255 1 -1.8747 13.1251 9.3750 0.000130 0.000036 0.000011 -0.1624 0.0481 0.0088
256 1 -1.8747 13.1250 13.1251 0.000124 -0.000001 0.000054 -0.1726 0.0399 -0.0084
257 1 1.8748 -13.1251 -13.1247 -0.000117 -0.000044 0.000131 -0.7436 0.5849 -0.0151
258 1 1.8752 -13.1250 -9.3748 0.000105 0.000004 0.000077 -0.8102 0.5924 0.0070
259 1 1.8747 -13.1251 -5.6248 -0.000142 -0.000031 0.000100 -0.7431 0.5895 -0.0077
260 1 1.8749 -13.1251 -1.8750 -0.000050 -0.000061 -0.000004 -0.7700 0.6008 0.0014
261 1 1.8751 -13.1249 1.8748 0.000042 0.000045 -0.000096 -0.7810 0.5906 0.0214
262 1 1.8748 -13.1253 5.6253 -0.000081 -0.000124 0.000128 -0.7650 0.6148 -0.0290
263 1 1.8749 -13.1253 9.3749 -0.000063 -0.000125 -0.000062 -0.7470 0.5986 0.0147
264 1 1.8754 -13.1252 13.1249 0.000176 -0.000111 -0.000048 -0.8000 0.6046 0.0117
265 1 1.8748 -9.3750 -13.1252 -0.000093 -0.000013 -0.000117 -0.2056 0.0462 0.0267
266 1 1.8750 -9.3752 -9.3748 0.000000 -0.000083 0.000119 -0.2177 0.0587 -0.0249
267 1 1.8750 -9.3751 -5.6250 0.000023 -0.000029 -0.000005 -0.2282 0.0437 0.0112
268 1 1.8750 -9.3750 -1.8749 0.000004 -0.000014 0.000037 -0.2328 0.0362 -0.0065
269 1 1.8752 -9.3749 1.8749 0.000085 0.000044 -0.000031 -0.2289 0.0405 0.0099
270 1 1.8747 -9.3749 5.6251 -0.000132 0.000073 0.000026 -0.1913 0.0339 -0.0102
271 1 1.8749 -9.3751 9.3749 -0.000036 -0.000048 -0.000057 -0.2091 0.0390 0.0119
272 1 1.8750 -9.3751 13.1251 -0.000003 -0.000026 0.000036 -0.2297 0.0399 -0.0169
273 1 1.8751 -5.6250 -13.1254 0.000051 -0.000001 -0.000182 -0.2033 0.0057 0.0335
274 1 1.8749 -5.6250 -9.3750 -0.000046 0.000010 -0.000009 -0.1887 -0.0080 -0.0080
275 1 1.8749 -5.6252 -5.6249 -0.000036 -0.000077 0.000062 -0.2003 0.0095 -0.0181
276 1 1.8750 -5.6252 -1.8752 -0.000013 -0.000113 -0.000119 -0.1793 0.0090 0.0136
277 1 1.8751 -5.6251 1.8748 0.000039 -0.000062 -0.000088 -0.1930 0.0221 0.0133
278 1 1.8747 -5.6249 5.6253 -0.000139 0.000071 0.000133 -0.1904 -0.0201 -0.0137
279 1 1.8752 -5.6251 9.3753 0.000121 -0.000061 0.000140 -0.2060 0.0016 0.0012
280 1 1.8749 -5.6251 13.1253 -0.000048 -0.000043 0.000126 -0.1754 0.0222 -0.0200
281 1 1.8749 -1.8748 -13.1249 -0.000031 0.000086 0.000042 -0.2144 -0.0241 0.0049
282 1 1.8751 -1.8750 -9.3750 0.000040 -0.000011 -0.000021 -0.1935 -0.0035 0.0159
283 1 1.8749 -1.8750 -5.6247 -0.000034 0.000020 0.000152 -0.1982 -0.0199 -0.0266
284 1 1.8749 -1.8751 -1.8750 -0.000055 -0.000066 0.000004 -0.2065 -0.0338 0.0015
285 1 1.8746 -1.8747 1.8749 -0.000186 0.000129 -0.000056 -0.2039 -0.0673 0.0058
286 1 1.8748 -1.8755 5.6249 -0.000088 -0.000232 -0.000028 -0.1967 -0.0052 0.0054
287 1 1.8750 -1.8750 9.3752 -0.000006 -0.000021 0.000081 -0.2169 -0.0481 -0.0066
288 1 1.8753 -1.8745 13.1252 0.000127 0.000248 0.000081 -0.2325 -0.0783 0.0041
289 1 1.8750 1.8750 -13.1249 -0.000013 -0.000001 0.000029 -0.3372 -0.1388 0.1078
290 1 1.8749 1.8749 -9.3747 -0.000065 -0.000070 0.000158 -0.2203 -0.0437 -0.0177
291 1 1.8749 1.8750 -5.6250 -0.000042 -0.000004 0.000021 -0.3256 -0.1458 -0.0977
292 1 1.8751 1.8751 -1.8752 0.000053 0.000028 -0.000084 -0.6836 -0.5158 -0.0885
293 1 1.8747 1.8750 1.8750 -0.000138 -0.000009 -0.000004 -0.7528 -0.5687 -0.0165
294 1 1.8751 1.8752 5.6250 0.000033 0.000094 0.000014 -0.7789 -0.6246 -0.0009
295 1 1.8749 1.8750 9.3750 -0.000046 0.000010 0.000011 -0.7683 -0.6072 0.0120
296 1 1.8749 1.8748 13.1250 -0.000050 -0.000107 0.000024 -0.6786 -0.4634 0.0976
297 1 1.8752 5.6249 -13.1248 0.000084 -0.000073 0.000119 -1.1498 -0.5867 0.3816
298 1 1.8750 5.6252 -9.3748 -0.000018 0.000099 0.000088 -0.7951 -0.6125 -0.0085
299 1 1.8750 5.6248 -5.6252 -0.000009 -0.000100 -0.000078 -1.1280 -0.5692 -0.3590
300 1 1.8752 5.6249 -1.8748 0.000128 -0.000059 0.000121 5.9925 -0.5910 -0.4055
301 1 1.8752 5.6253 1.8750 0.000140 0.000136 0.000019 5.6384 -0.6042 -0.0102
302 1 1.8748 5.6250 5.6252 -0.000044 -0.000007 0.000090 5.6278 -0.5876 -0.0094
303 1 1.8751 5.6246 9.3750 0.000069 -0.000211 0.000013 5.6436 -0.5644 0.0333
304 1 1.8752 5.6252 13.1251 0.000140 0.000080 0.000057 5.9800 -0.6135 0.3879
305 1 1.8751 9.3750 -13.1251 0.000094 0.000016 -0.000057 5.5489 -0.4783 0.1038
306 1 1.8752 9.3750 -9.3748 0.000157 0.000015 0.000107 5.6374 -0.5293 -0.0234
307 1 1.8749 9.3754 -5.6251 0.000000 0.000181 -0.000063 5.5636 -0.4950 -0.0812
308 1 1.8756 9.3749 -1.8750 0.000324 -0.000062 0.000024 5.1685 -0.0911 -0.1182
309 1 1.8748 9.3753 1.8747 -0.000053 0.000127 -0.000151 5.0977 -0.0158 0.0023
310 1 1.8751 9.3750 5.6248 0.000078 -0.000007 -0.000098 5.0860 -0.0021 -0.0132
311 1 1.8754 9.3751 9.3746 0.000216 0.000029 -0.000202 5.1057 -0.0355 0.0223
312 1 1.8753 9.3750 13.1247 0.000203 -0.000008 -0.000127 5.1857 -0.0905 0.0970
313 1 1.8751 13.1246 -13.1246 0.000107 -0.000205 0.000179 5.6360 0.5853 -0.0220
314 1 1.8751 13.1251 -9.3752 0.000088 0.000042 -0.000093 5.6448 0.5453 0.0263
315 1 1.8751 13.1248 -5.6250 0.000089 -0.000118 0.000017 5.6351 0.5870 -0.0207
316 1 1.8752 13.1250 -1.8751 0.000110 -0.000013 -0.000069 5.6295 0.5768 0.0109
317 1 1.8750 13.1249 1.8752 0.000026 -0.000042 0.000086 5.6290 0.6137 -0.0196
318 1 1.8752 13.1249 5.6249 0.000148 -0.000028 -0.000054 5.6389 0.5903 0.0082
319 1 1.8752 13.1247 9.3749 0.000123 -0.000129 -0.000073 5.6299 0.6056 0.0098
320 1 1.8751 13.1249 13.1251 0.000094 -0.000055 0.000043 5.6364 0.5834 0.0083
321 1 5.6251 -13.1253 -13.1248 0.000079 -0.000173 0.000098 5.0443 -6.2875 -0.0219
322 1 5.6246 -13.1250 -9.3750 -0.000163 -0.000064 0.000001 5.0744 -6.2925 0.0057
323 1 5.6252 -13.1251 -5.6250 0.000127 -0.000095 -0.000010 5.0400 -6.2950 -0.0083
324 1 5.6250 -13.1250 -1.8752 0.000038 -0.000060 -0.000120 5.0509 -6.2948 0.0131
325 1 5.6250 -13.1249 1.8749 0.000039 0.000012 -0.000042 5.0582 -6.3058 0.0104
326 1 5.6251 -13.1251 5.6254 0.000086 -0.000105 0.000176 5.0448 -6.2823 -0.0286
327 1 5.6254 -13.1251 9.3750 0.000252 -0.000101 -0.000009 5.0366 -6.2866 0.0067
328 1 5.6251 -13.1252 13.1248 0.000099 -0.000161 -0.000107 5.0635 -6.2873 0.0216
329 1 5.6251 -9.3751 -13.1250 0.000086 -0.000048 0.000003 5.0450 0.1060 0.0047
330 1 5.6251 -9.3751 -9.3748 0.000097 -0.000026 0.000084 5.0522 0.1113 -0.0042
331 1 5.6249 -9.3752 -5.6248 0.000002 -0.000081 0.000089 5.0579 0.1147 -0.0094
332 1 5.6250 -9.3751 -1.8751 0.000038 -0.000050 -0.000053 5.0544 0.1230 0.0115
333 1 5.6250 -9.3753 1.8749 0.000017 -0.000136 -0.000041 5.0616 0.1196 -0.0008
334 1 5.6253 -9.3748 5.6249 0.000194 0.000082 -0.000035 5.0360 0.0821 0.0023
335 1 5.6252 -9.3750 9.3750 0.000119 0.000018 0.000021 5.0458 0.1109 -0.0066
336 1 5.6251 -9.3751 13.1250 0.000081 -0.000042 -0.000021 5.0507 0.1070 0.0049
337 1 5.6249 -5.6249 -13.1251 -0.000026 0.000041 -0.000067 5.0617 -0.0198 -0.0020
338 1 5.6251 -5.6249 -9.3753 0.000058 0.000042 -0.000147 5.0500 -0.0041 0.0116
339 1 5.6251 -5.6250 -5.6251 0.000057 0.000024 -0.000033 5.0500 -0.0073 -0.0105
340 1 5.6254 -5.6247 -1.8751 0.000253 0.000146 -0.000047 5.0411 -0.0259 0.0023
341 1 5.6251 -5.6252 1.8749 0.000092 -0.000111 -0.000030 5.0545 0.0025 0.0026
342 1 5.6250 -5.6252 5.6250 0.000014 -0.000109 0.000019 5.0441 0.0263 -0.0070
343 1 5.6252 -5.6247 9.3749 0.000111 0.000161 -0.000030 5.0581 -0.0247 0.0046
344 1 5.6254 -5.6249 13.1250 0.000240 0.000056 -0.000001 5.0393 -0.0209 -0.0076
345 1 5.6249 -1.8753 -13.1248 -0.000031 -0.000141 0.000110 5.0567 -0.0032 0.0043
346 1 5.6252 -1.8749 -9.3749 0.000146 0.000046 0.000071 5.0516 0.0012 -0.0001
347 1 5.6252 -1.8749 -5.6250 0.000121 0.000033 0.000015 5.0474 -0.0289 -0.0097
348 1 5.6250 -1.8751 -1.8750 0.000021 -0.000045 0.000008 5.0511 -0.0458 -0.0171
349 1 5.6249 -1.8751 1.8749 -0.000040 -0.000031 -0.000054 5.0449 -0.1224 0.0046
350 1 5.6254 -1.8748 5.6249 0.000251 0.000080 -0.000047 5.0366 -0.1264 0.0048
351 1 5.6254 -1.8751 9.3750 0.000219 -0.000067 0.000023 5.0433 -0.0835 -0.0043
352 1 5.6251 -1.8753 13.1251 0.000073 -0.000131 0.000028 5.0607 -0.0558 0.0176
353 1 5.6247 1.8750 -13.1249 -0.000103 -0.000014 0.000067 5.0621 -0.4746 0.3860
354 1 5.6250 1.8751 -9.3748 0.000023 0.000052 0.000101 5.0515 -0.1245 0.0066
355 1 5.6249 1.8749 -5.6246 -0.000003 -0.000031 0.000214 5.0531 -0.4758 -0.3865
356 1 5.6249 1.8755 -1.8744 -0.000012 0.000294 0.000273 5.0623 6.6480 -0.4061
357 1 5.6250 1.8747 1.8750 0.000014 -0.000121 0.000016 5.0475 6.3116 -0.0179
358 1 5.6247 1.8749 5.6247 -0.000101 -0.000002 -0.000167 5.0659 6.3016 0.0231
359 1 5.6248 1.8750 9.3750 -0.000073 0.000059 -0.000019 5.0580 6.2987 0.0159
360 1 5.6251 1.8751 13.1250 0.000098 0.000104 0.000026 5.0484 6.6530 0.3850
361 1 5.6250 5.6254 -13.1254 0.000036 0.000227 -0.000230 5.0625 6.2798 -7.0796
362 1 5.6249 5.6252 -9.3751 -0.000043 0.000158 -0.000045 5.0578 6.2886 -0.0095
363 1 5.6254 5.6250 -5.6250 0.000254 0.000020 0.000029 5.0412 6.2918 7.0844
ITEM: TIMESTEP
10
ITEM: NUMBER OF ATOMS
363
ITEM: BOX BOUNDS pp pp pp
-15.000000 15.000000
-15.000000 15.000000
-15.000000 15.000000
ITEM: ATOMS id type xu yu zu vx vy vz fx fy fz
1 1 -13.1317 -13.1223 -13.1240 -0.000648 0.000120 0.000049 -4.7950 -0.1306 0.0698
2 1 -13.1336 -13.1282 -9.3725 -0.000730 -0.000135 0.000110 -4.7762 0.3583 -0.0875
3 1 -13.1328 -13.1270 -5.6243 -0.000694 -0.000086 0.000035 -4.7788 0.2551 0.0548
4 1 -13.1364 -13.1279 -1.8745 -0.000859 -0.000128 0.000020 -4.7185 0.1819 -0.0426
5 1 -13.1341 -13.1271 1.8741 -0.000755 -0.000093 -0.000039 -4.7359 0.1650 0.0309
6 1 -13.1330 -13.1277 5.6236 -0.000704 -0.000121 -0.000060 -4.7716 0.0892 0.1048