ITEM: TIMESTEP
0
ITEM: NUMBER OF ATOMS
363
ITEM: BOX BOUNDS pp pp pp
-15.000000 15.000000
-15.000000 15.000000
-15.000000 15.000000
ITEM: ATOMS id type xu yu zu vx vy vz fx fy fz
1 1 -13.1251 -13.1251 -13.1249 -0.000090 -0.000138 0.000061 -5.0496 0.0115 -0.0021
2 1 -13.1251 -13.1249 -9.3750 -0.000094 0.000144 0.000018 -5.0509 -0.0076 -0.0005
3 1 -13.1250 -13.1250 -5.6250 0.000006 0.000002 -0.000037 -5.0616 -0.0035 0.0079
4 1 -13.1250 -13.1249 -1.8749 0.000001 0.000067 0.000141 -5.0556 0.0008 -0.0164
5 1 -13.1250 -13.1248 1.8749 -0.000027 0.000199 -0.000135 -5.0544 -0.0087 0.0147
6 1 -13.1250 -13.1250 5.6250 -0.000033 0.000035 0.000012 -5.0558 -0.0007 -0.0050
7 1 -13.1250 -13.1250 9.3750 -0.000058 0.000009 0.000011 -5.0542 -0.0081 0.0012
8 1 -13.1252 -13.1250 13.1250 -0.000173 0.000008 0.000040 -5.0483 -0.0035 0.0001
9 1 -13.1250 -9.3750 -13.1250 -0.000055 0.000001 0.000016 -5.0495 -0.0067 -0.0030
10 1 -13.1249 -9.3750 -9.3748 0.000039 0.000017 0.000166 -5.0578 0.0076 -0.0096
11 1 -13.1249 -9.3751 -5.6250 0.000126 -0.000068 0.000027 -5.0543 0.0054 0.0115
12 1 -13.1250 -9.3749 -1.8748 -0.000009 0.000108 0.000191 -5.0546 -0.0008 -0.0152
13 1 -13.1251 -9.3749 1.8749 -0.000094 0.000063 -0.000091 -5.0553 0.0107 0.0079
14 1 -13.1249 -9.3750 5.6248 0.000111 0.000030 -0.000151 -5.0585 0.0010 0.0059
15 1 -13.1250 -9.3750 9.3750 -0.000063 0.000002 -0.000026 -5.0527 0.0041 -0.0122
16 1 -13.1250 -9.3751 13.1248 0.000017 -0.000075 -0.000218 -5.0469 0.0046 0.0143
17 1 -13.1250 -5.6250 -13.1250 -0.000029 -0.000040 0.000024 -5.0528 -0.0002 -0.0021
18 1 -13.1249 -5.6249 -9.3750 0.000084 0.000080 0.000048 -5.0562 -0.0024 -0.0051
19 1 -13.1250 -5.6250 -5.6251 -0.000022 0.000026 -0.000063 -5.0548 -0.0069 0.0046
20 1 -13.1250 -5.6249 -1.8750 -0.000025 0.000102 -0.000032 -5.0518 -0.0059 0.0005
21 1 -13.1251 -5.6248 1.8750 -0.000142 0.000213 0.000020 -5.0529 -0.0130 -0.0038
22 1 -13.1252 -5.6250 5.6249 -0.000212 0.000050 -0.000054 -5.0486 -0.0083 0.0049
23 1 -13.1251 -5.6249 9.3750 -0.000123 0.000099 0.000016 -5.0543 -0.0139 -0.0048
24 1 -13.1250 -5.6250 13.1249 -0.000017 -0.000017 -0.000051 -5.0591 -0.0007 0.0055
25 1 -13.1250 -1.8751 -13.1250 -0.000056 -0.000081 0.000020 -5.0511 -0.0019 -0.0066
26 1 -13.1251 -1.8749 -9.3750 -0.000160 0.000059 -0.000011 -5.0529 0.0001 0.0031
27 1 -13.1251 -1.8751 -5.6250 -0.000106 -0.000070 0.000041 -5.0538 0.0045 -0.0084
28 1 -13.1251 -1.8751 -1.8752 -0.000106 -0.000078 -0.000150 -5.0582 0.0072 0.0069
29 1 -13.1249 -1.8750 1.8749 0.000048 -0.000016 -0.000127 -5.0586 0.0131 0.0094
30 1 -13.1250 -1.8751 5.6252 -0.000017 -0.000150 0.000174 -5.0514 0.0074 -0.0189
31 1 -13.1249 -1.8752 9.3749 0.000098 -0.000197 -0.000061 -5.0585 0.0196 0.0060
32 1 -13.1250 -1.8750 13.1249 0.000015 0.000026 -0.000131 -5.0590 -0.0029 0.0074
33 1 -13.1251 1.8748 -13.1250 -0.000108 -0.000160 -0.000044 -5.0509 0.0121 0.0004
34 1 -13.1250 1.8750 -9.3751 -0.000019 0.000015 -0.000071 -5.0594 -0.0017 0.0017
35 1 -13.1250 1.8750 -5.6250 -0.000046 -0.000039 -0.000035 -5.0567 0.0042 0.0064
36 1 -13.1251 1.8750 -1.8748 -0.000099 -0.000048 0.000176 -5.0533 -0.0038 -0.0158
37 1 -13.1249 1.8751 1.8749 0.000102 0.000105 -0.000079 -5.0597 -0.0029 0.0167
38 1 -13.1250 1.8749 5.6251 0.000001 -0.000122 0.000129 -5.0507 -0.0012 -0.0164
39 1 -13.1248 1.8751 9.3749 0.000140 0.000066 -0.000120 -5.0561 -0.0172 0.0130
40 1 -13.1250 1.8750 13.1250 -0.000059 -0.000026 0.000003 -5.0527 -0.0004 -0.0056
41 1 -13.1249 5.6251 -13.1250 0.000068 0.000113 0.000019 -5.0579 -0.0119 -0.0056
42 1 -13.1251 5.6249 -9.3750 -0.000099 -0.000085 0.000019 -5.0585 0.0041 -0.0082
43 1 -13.1250 5.6251 -5.6252 -0.000052 0.000097 -0.000218 -5.0574 -0.0074 0.0181
44 1 -13.1251 5.6249 -1.8749 -0.000137 -0.000102 0.000066 -5.0515 0.0061 -0.0114
45 1 -13.1248 5.6251 1.8750 0.000135 0.000116 0.000038 -5.0609 0.0010 0.0019
46 1 -13.1250 5.6249 5.6250 -0.000007 -0.000098 0.000048 -5.0606 -0.0009 -0.0024
47 1 -13.1250 5.6248 9.3750 -0.000013 -0.000154 -0.000005 -5.0570 0.0156 -0.0029
48 1 -13.1250 5.6249 13.1249 -0.000032 -0.000090 -0.000135 -5.0604 -0.0006 0.0095
49 1 -13.1250 9.3750 -13.1249 0.000012 0.000025 0.000063 -5.0576 0.0057 -0.0059
50 1 -13.1250 9.3749 -9.3752 0.000002 -0.000055 -0.000150 -5.0649 0.0012 0.0077
51 1 -13.1251 9.3750 -5.6251 -0.000067 -0.000002 -0.000134 -5.0523 0.0029 0.0035
52 1 -13.1252 9.3750 -1.8750 -0.000216 0.000042 0.000000 -5.0479 -0.0051 -0.0102
53 1 -13.1252 9.3751 1.8749 -0.000246 0.000131 -0.000130 -5.0413 -0.0021 0.0114
54 1 -13.1249 9.3749 5.6251 0.000065 -0.000065 0.000071 -5.0570 0.0012 -0.0053
55 1 -13.1251 9.3751 9.3751 -0.000126 0.000068 0.000111 -5.0514 -0.0174 -0.0012
56 1 -13.1250 9.3748 13.1251 -0.000017 -0.000151 0.000096 -5.0554 0.0059 0.0001
57 1 -13.1249 13.1251 -13.1250 0.000091 0.000078 -0.000006 -5.0563 -0.0094 0.0006
58 1 -13.1250 13.1250 -9.3750 -0.000036 0.000026 -0.000023 -5.0580 0.0014 0.0046
59 1 -13.1249 13.1250 -5.6249 0.000124 -0.000012 0.000082 -5.0600 0.0005 -0.0020
60 1 -13.1250 13.1250 -1.8749 -0.000008 0.000041 0.000115 -5.0520 0.0012 -0.0046
61 1 -13.1250 13.1251 1.8750 -0.000054 0.000067 0.000010 -5.0471 0.0075 0.0047
62 1 -13.1250 13.1250 5.6250 -0.000056 0.000026 0.000005 -5.0548 -0.0025 0.0008
63 1 -13.1250 13.1248 9.3750 -0.000018 -0.000206 0.000020 -5.0537 0.0169 -0.0002
64 1 -13.1249 13.1250 13.1250 0.000041 -0.000015 0.000035 -5.0599 -0.0042 -0.0021
65 1 -9.3749 -13.1249 -13.1249 0.000087 0.000082 0.000052 0.1944 -0.0058 0.0003
66 1 -9.3749 -13.1251 -9.3750 0.000053 -0.000106 -0.000027 0.1956 0.0006 0.0070
67 1 -9.3751 -13.1250 -5.6249 -0.000145 -0.000049 0.000079 0.2119 0.0056 -0.0082
68 1 -9.3750 -13.1251 -1.8750 0.000001 -0.000057 -0.000043 0.2048 -0.0024 0.0078
69 1 -9.3750 -13.1250 1.8751 0.000007 0.000042 0.000062 0.1965 0.0011 -0.0075
70 1 -9.3750 -13.1250 5.6249 -0.000027 0.000034 -0.000067 0.2061 -0.0054 0.0069
71 1 -9.3750 -13.1251 9.3750 -0.000016 -0.000098 0.000010 0.1998 0.0019 0.0016
72 1 -9.3749 -13.1251 13.1251 0.000065 -0.000139 0.000135 0.1869 0.0155 -0.0067
73 1 -9.3749 -9.3749 -13.1250 0.000127 0.000055 -0.000002 0.1906 -0.0008 -0.0038
74 1 -9.3750 -9.3752 -9.3750 -0.000020 -0.000164 -0.000019 0.1994 0.0067 0.0019
75 1 -9.3749 -9.3751 -5.6250 0.000139 -0.000062 0.000036 0.2036 -0.0002 -0.0047
76 1 -9.3750 -9.3752 -1.8750 0.000024 -0.000174 -0.000040 0.1952 0.0050 0.0013
77 1 -9.3751 -9.3750 1.8749 -0.000063 0.000018 -0.000060 0.2043 -0.0017 0.0017
78 1 -9.3750 -9.3750 5.6250 -0.000007 -0.000035 -0.000028 0.1999 0.0019 0.0036
79 1 -9.3750 -9.3750 9.3751 0.000034 -0.000037 0.000105 0.1960 0.0016 -0.0107
80 1 -9.3748 -9.3749 13.1249 0.000238 0.000126 -0.000073 0.1840 -0.0132 0.0087
81 1 -9.3749 -5.6250 -13.1248 0.000055 -0.000012 0.000162 0.1899 -0.0014 -0.0087
82 1 -9.3750 -5.6250 -9.3749 0.000042 0.000001 0.000086 0.1970 -0.0099 0.0000
83 1 -9.3750 -5.6251 -5.6250 0.000014 -0.000089 -0.000009 0.2000 -0.0010 0.0054
84 1 -9.3749 -5.6251 -1.8750 0.000073 -0.000106 0.000041 0.1949 0.0031 -0.0087
85 1 -9.3750 -5.6251 1.8748 -0.000044 -0.000068 -0.000158 0.1972 0.0083 0.0145
86 1 -9.3750 -5.6250 5.6251 0.000025 -0.000034 0.000073 0.1918 0.0068 -0.0090
87 1 -9.3751 -5.6249 9.3750 -0.000067 0.000079 0.000044 0.1923 -0.0074 -0.0010
88 1 -9.3751 -5.6250 13.1250 -0.000108 0.000001 -0.000038 0.2082 0.0051 0.0104
89 1 -9.3749 -1.8751 -13.1250 0.000068 -0.000120 0.000031 0.2011 0.0055 -0.0015
90 1 -9.3751 -1.8751 -9.3750 -0.000053 -0.000096 0.000034 0.1959 0.0111 -0.0034
91 1 -9.3751 -1.8751 -5.6250 -0.000049 -0.000132 -0.000049 0.2034 -0.0032 -0.0004
92 1 -9.3752 -1.8749 -1.8751 -0.000155 0.000075 -0.000123 0.2096 -0.0073 0.0067
93 1 -9.3750 -1.8749 1.8750 -0.000044 0.000107 -0.000002 0.2088 -0.0091 0.0004
94 1 -9.3749 -1.8748 5.6251 0.000103 0.000156 0.000115 0.1983 -0.0116 -0.0107
95 1 -9.3750 -1.8750 9.3749 0.000002 -0.000028 -0.000079 0.2054 0.0076 0.0085
96 1 -9.3751 -1.8750 13.1250 -0.000076 0.000016 -0.000021 0.2067 0.0006 0.0001
97 1 -9.3750 1.8750 -13.1250 0.000045 -0.000047 -0.000020 0.1969 -0.0060 0.0031
98 1 -9.3751 1.8751 -9.3749 -0.000135 0.000123 0.000120 0.2085 -0.0143 -0.0070
99 1 -9.3751 1.8748 -5.6250 -0.000077 -0.000235 0.000041 0.2059 0.0049 0.0018
100 1 -9.3750 1.8750 -1.8750 -0.000022 0.000034 -0.000013 0.1977 0.0003 0.0017
101 1 -9.3750 1.8750 1.8750 -0.000020 0.000021 -0.000010 0.2041 0.0075 0.0007
102 1 -9.3749 1.8750 5.6250 0.000149 -0.000016 0.000016 0.1873 0.0149 0.0008
103 1 -9.3749 1.8751 9.3751 0.000101 0.000077 0.000069 0.2013 -0.0042 -0.0062
104 1 -9.3750 1.8750 13.1249 0.000037 0.000038 -0.000069 0.1984 0.0012 0.0064
105 1 -9.3750 5.6249 -13.1250 -0.000016 -0.000123 -0.000019 0.2110 0.0109 -0.0000
106 1 -9.3752 5.6249 -9.3750 -0.000151 -0.000087 0.000045 0.2063 0.0115 -0.0056
107 1 -9.3751 5.6249 -5.6251 -0.000100 -0.000142 -0.000054 0.2085 0.0078 0.0068
108 1 -9.3750 5.6250 -1.8750 -0.000003 -0.000016 0.000041 0.1935 -0.0010 -0.0032
109 1 -9.3750 5.6251 1.8750 -0.000048 0.000145 0.000037 0.2160 -0.0084 0.0016
110 1 -9.3751 5.6252 5.6251 -0.000125 0.000219 0.000066 0.2113 -0.0139 -0.0026
111 1 -9.3750 5.6251 9.3750 -0.000048 0.000054 0.000007 0.1993 -0.0047 -0.0013
112 1 -9.3752 5.6251 13.1249 -0.000151 0.000078 -0.000089 0.2125 0.0001 0.0055
113 1 -9.3750 9.3751 -13.1251 -0.000035 0.000117 -0.000117 0.1989 -0.0155 0.0054
114 1 -9.3753 9.3750 -9.3751 -0.000253 0.000021 -0.000128 0.2145 -0.0048 0.0060
115 1 -9.3750 9.3752 -5.6249 0.000037 0.000199 0.000056 0.1996 -0.0137 -0.0084
116 1 -9.3750 9.3749 -1.8750 0.000024 -0.000092 0.000002 0.1934 0.0056 -0.0007
117 1 -9.3748 9.3750 1.8749 0.000198 0.000025 -0.000067 0.1786 0.0074 0.0025
118 1 -9.3750 9.3750 5.6249 -0.000005 0.000028 -0.000073 0.2067 0.0046 0.0011
119 1 -9.3750 9.3749 9.3750 0.000021 -0.000096 -0.000027 0.1978 0.0034 0.0012
120 1 -9.3750 9.3751 13.1251 -0.000011 0.000083 0.000072 0.2058 0.0001 -0.0102
121 1 -9.3749 13.1249 -13.1250 0.000052 -0.000084 -0.000018 0.2022 0.0125 0.0024
122 1 -9.3751 13.1250 -9.3750 -0.000082 0.000009 -0.000006 0.2073 -0.0039 0.0046
123 1 -9.3750 13.1251 -5.6249 -0.000024 0.000113 0.000127 0.2113 -0.0019 -0.0077
124 1 -9.3749 13.1250 -1.8750 0.000087 0.000014 0.000028 0.1948 -0.0069 -0.0057
125 1 -9.3748 13.1251 1.8748 0.000177 0.000101 -0.000228 0.1877 -0.0042 0.0155
126 1 -9.3750 13.1249 5.6250 -0.000015 -0.000054 0.000002 0.1998 0.0058 -0.0069
127 1 -9.3750 13.1249 9.3750 0.000032 -0.000099 0.000039 0.2035 -0.0003 -0.0012
128 1 -9.3751 13.1251 13.1250 -0.000086 0.000053 0.000031 0.2078 -0.0052 -0.0016
129 1 -5.6249 -13.1250 -13.1248 0.000072 0.000042 0.000174 -0.0005 -0.0044 -0.0132
130 1 -5.6250 -13.1248 -9.3752 0.000028 0.000153 -0.000166 -0.0026 -0.0094 0.0220
131 1 -5.6250 -13.1251 -5.6249 0.000041 -0.000077 0.000129 -0.0108 0.0090 -0.0144
132 1 -5.6249 -13.1250 -1.8750 0.000097 -0.000036 -0.000002 -0.0115 0.0055 0.0078
133 1 -5.6251 -13.1249 1.8751 -0.000082 0.000136 0.000073 0.0122 -0.0120 -0.0056
134 1 -5.6249 -13.1250 5.6250 0.000114 0.000016 0.000001 -0.0046 0.0039 0.0015
135 1 -5.6250 -13.1251 9.3750 -0.000003 -0.000133 -0.000017 -0.0017 0.0079 0.0048
136 1 -5.6251 -13.1249 13.1251 -0.000087 0.000063 0.000114 0.0094 -0.0014 -0.0021
137 1 -5.6250 -9.3750 -13.1249 0.000002 0.000009 0.000057 0.0094 -0.0029 -0.0004
138 1 -5.6251 -9.3750 -9.3749 -0.000104 0.000024 0.000053 0.0050 0.0086 -0.0025
139 1 -5.6248 -9.3750 -5.6250 0.000174 0.000002 -0.000043 -0.0091 -0.0056 0.0066
140 1 -5.6251 -9.3750 -1.8749 -0.000097 0.000049 0.000055 0.0074 -0.0015 -0.0058
141 1 -5.6249 -9.3752 1.8750 0.000068 -0.000163 -0.000010 -0.0115 0.0242 0.0050
142 1 -5.6252 -9.3749 5.6251 -0.000164 0.000122 0.000061 0.0085 -0.0119 -0.0039
143 1 -5.6250 -9.3750 9.3750 -0.000011 0.000047 0.000006 -0.0023 -0.0128 0.0042
144 1 -5.6251 -9.3750 13.1250 -0.000061 0.000036 0.000045 0.0080 -0.0003 -0.0003
145 1 -5.6252 -5.6251 -13.1250 -0.000171 -0.000092 -0.000050 0.0130 0.0121 0.0031
146 1 -5.6251 -5.6249 -9.3750 -0.000125 0.000112 -0.000007 0.0086 -0.0067 -0.0037
147 1 -5.6250 -5.6251 -5.6250 0.000027 -0.000070 -0.000048 -0.0002 0.0025 0.0063
148 1 -5.6250 -5.6249 -1.8749 -0.000024 0.000064 0.000094 0.0019 -0.0030 -0.0095
149 1 -5.6250 -5.6248 1.8750 -0.000040 0.000239 -0.000041 0.0053 -0.0210 0.0100
150 1 -5.6250 -5.6251 5.6251 -0.000002 -0.000137 0.000106 0.0061 0.0113 -0.0187
151 1 -5.6252 -5.6251 9.3747 -0.000236 -0.000126 -0.000278 0.0092 0.0108 0.0222
152 1 -5.6250 -5.6250 13.1250 0.000023 0.000007 0.000011 0.0002 0.0015 -0.0128
153 1 -5.6248 -1.8748 -13.1252 0.000172 0.000162 -0.000173 -0.0062 -0.0112 0.0132
154 1 -5.6251 -1.8750 -9.3748 -0.000077 -0.000017 0.000154 -0.0007 0.0090 -0.0174
155 1 -5.6249 -1.8751 -5.6250 0.000063 -0.000051 -0.000028 -0.0099 -0.0013 0.0024
156 1 -5.6249 -1.8750 -1.8751 0.000063 -0.000017 -0.000146 -0.0089 0.0086 0.0096
157 1 -5.6249 -1.8750 1.8750 0.000074 0.000009 0.000038 -0.0114 0.0141 -0.0104
158 1 -5.6249 -1.8751 5.6249 0.000128 -0.000056 -0.000078 -0.0091 0.0011 0.0075
159 1 -5.6250 -1.8750 9.3750 0.000026 0.000028 0.000034 0.0001 -0.0062 -0.0081
160 1 -5.6250 -1.8750 13.1249 0.000001 0.000014 -0.000091 -0.0062 -0.0026 0.0008
161 1 -5.6249 1.8751 -13.1249 0.000070 0.000069 0.000058 0.0006 -0.0051 -0.0008
162 1 -5.6250 1.8751 -9.3749 -0.000034 0.000108 0.000070 -0.0014 -0.0057 -0.0075
163 1 -5.6250 1.8749 -5.6251 0.000019 -0.000060 -0.000131 -0.0066 0.0008 0.0145
164 1 -5.6250 1.8751 -1.8749 -0.000045 0.000143 0.000094 0.0061 -0.0106 -0.0098
165 1 -5.6251 1.8751 1.8750 -0.000058 0.000149 0.000028 0.0053 -0.0124 -0.0028
166 1 -5.6251 1.8751 5.6249 -0.000109 0.000084 -0.000121 0.0183 -0.0093 0.0118
167 1 -5.6249 1.8750 9.3751 0.000050 0.000005 0.000070 0.0020 -0.0003 -0.0089
168 1 -5.6250 1.8750 13.1250 0.000046 -0.000043 -0.000002 -0.0016 -0.0038 0.0054
169 1 -5.6248 5.6248 -13.1250 0.000152 -0.000188 -0.000023 -0.0084 0.0189 -0.0007
170 1 -5.6250 5.6251 -9.3750 -0.000049 0.000053 -0.000035 0.0001 0.0032 0.0025
171 1 -5.6249 5.6250 -5.6250 0.000063 -0.000028 0.000036 -0.0071 -0.0006 -0.0013
172 1 -5.6251 5.6250 -1.8750 -0.000089 -0.000015 0.000047 0.0104 0.0049 -0.0033
173 1 -5.6248 5.6249 1.8750 0.000179 -0.000080 -0.000036 -0.0154 0.0080 0.0053
174 1 -5.6249 5.6250 5.6250 0.000064 -0.000042 0.000043 -0.0098 0.0025 -0.0061
175 1 -5.6251 5.6250 9.3750 -0.000125 -0.000023 -0.000044 0.0051 0.0143 0.0033
176 1 -5.6249 5.6248 13.1250 0.000076 -0.000178 -0.000023 -0.0146 0.0065 -0.0007
177 1 -5.6251 9.3751 -13.1250 -0.000141 0.000098 0.000031 0.0066 -0.0144 0.0014
178 1 -5.6251 9.3751 -9.3750 -0.000095 0.000056 0.000017 -0.0032 -0.0029 0.0023
179 1 -5.6249 9.3750 -5.6250 0.000072 -0.000002 0.000050 -0.0014 0.0029 0.0004
180 1 -5.6249 9.3749 -1.8749 0.000061 -0.000053 0.000083 -0.0026 0.0045 -0.0049
181 1 -5.6250 9.3749 1.8750 -0.000010 -0.000067 -0.000047 0.0067 0.0043 0.0066
182 1 -5.6249 9.3749 5.6250 0.000076 -0.000078 0.000012 -0.0027 0.0036 -0.0028
183 1 -5.6249 9.3753 9.3750 0.000073 0.000341 -0.000009 -0.0030 -0.0249 0.0039
184 1 -5.6249 9.3749 13.1251 0.000113 -0.000095 0.000069 -0.0116 -0.0003 -0.0041
185 1 -5.6250 13.1250 -13.1251 0.000022 -0.000037 -0.000103 0.0044 0.0077 0.0089
186 1 -5.6250 13.1250 -9.3749 0.000049 -0.000027 0.000063 -0.0011 0.0097 -0.0095
187 1 -5.6249 13.1251 -5.6251 0.000102 0.000106 -0.000053 -0.0086 -0.0100 0.0028
188 1 -5.6250 13.1250 -1.8751 -0.000000 0.000036 -0.000068 0.0049 -0.0059 0.0083
189 1 -5.6250 13.1251 1.8752 0.000017 0.000079 0.000163 0.0042 -0.0030 -0.0127
190 1 -5.6250 13.1250 5.6250 0.000000 0.000014 -0.000000 0.0005 -0.0031 0.0064
191 1 -5.6249 13.1249 9.3750 0.000129 -0.000070 0.000004 -0.0111 0.0124 0.0001
192 1 -5.6250 13.1250 13.1250 -0.000005 0.000026 0.000002 -0.0053 -0.0028 -0.0045
193 1 -1.8750 -13.1250 -13.1250 0.000026 0.000037 0.000008 -0.0458 0.0244 -0.0030
194 1 -1.8751 -13.1251 -9.3751 -0.000072 -0.000095 -0.000138 -0.0472 0.0255 0.0087
195 1 -1.8751 -13.1251 -5.6250 -0.000051 -0.000078 -0.000029 -0.0458 0.0278 -0.0062
196 1 -1.8751 -13.1250 -1.8751 -0.000145 0.000042 -0.000079 -0.0346 0.0182 0.0101
197 1 -1.8748 -13.1250 1.8752 0.000199 -0.000020 0.000161 -0.0616 0.0221 -0.0060
198 1 -1.8749 -13.1250 5.6252 0.000087 0.000018 0.000200 -0.0552 0.0180 0.0015
199 1 -1.8750 -13.1250 9.3752 -0.000031 -0.000046 0.000225 -0.0433 0.0272 -0.0041
200 1 -1.8750 -13.1250 13.1251 0.000035 0.000044 0.000071 -0.0546 0.0225 0.0042
201 1 -1.8749 -9.3750 -13.1249 0.000120 0.000030 0.000068 -0.0112 -0.0045 -0.0125
202 1 -1.8750 -9.3750 -9.3750 -0.000020 -0.000011 -0.000048 -0.0042 -0.0037 0.0054
203 1 -1.8751 -9.3750 -5.6250 -0.000082 -0.000002 -0.000009 0.0119 -0.0003 0.0012
204 1 -1.8750 -9.3750 -1.8749 0.000023 -0.000009 0.000057 -0.0045 0.0004 -0.0045
205 1 -1.8751 -9.3751 1.8750 -0.000147 -0.000086 -0.000005 0.0161 0.0061 -0.0018
206 1 -1.8750 -9.3751 5.6249 -0.000041 -0.000079 -0.000095 -0.0088 0.0049 0.0011
207 1 -1.8751 -9.3750 9.3749 -0.000142 0.000030 -0.000115 0.0106 -0.0014 -0.0024
208 1 -1.8751 -9.3749 13.1248 -0.000127 0.000058 -0.000156 0.0034 0.0008 0.0077
209 1 -1.8750 -5.6251 -13.1249 0.000002 -0.000098 0.000127 -0.0054 0.0088 -0.0077
210 1 -1.8750 -5.6250 -9.3750 -0.000044 -0.000011 -0.000024 0.0008 0.0040 0.0080
211 1 -1.8750 -5.6249 -5.6250 0.000037 0.000058 0.000042 0.0024 -0.0024 -0.0001
212 1 -1.8751 -5.6250 -1.8749 -0.000066 -0.000043 0.000092 0.0028 0.0027 0.0006
213 1 -1.8749 -5.6250 1.8751 0.000118 0.000016 0.000139 -0.0106 -0.0100 -0.0032
214 1 -1.8749 -5.6250 5.6250 0.000115 -0.000019 0.000048 -0.0042 -0.0003 -0.0010
215 1 -1.8751 -5.6249 9.3749 -0.000092 0.000070 -0.000084 -0.0032 -0.0022 0.0095
216 1 -1.8749 -5.6249 13.1250 0.000132 0.000088 0.000045 -0.0097 -0.0008 -0.0009
217 1 -1.8749 -1.8750 -13.1249 0.000053 0.000042 0.000116 -0.0017 -0.0121 -0.0097
218 1 -1.8751 -1.8749 -9.3750 -0.000100 0.000110 -0.000048 0.0028 -0.0143 0.0086
219 1 -1.8751 -1.8750 -5.6250 -0.000103 0.000029 0.000037 0.0078 0.0001 -0.0014
220 1 -1.8750 -1.8750 -1.8749 0.000026 0.000009 0.000081 0.0059 -0.0032 -0.0095
221 1 -1.8751 -1.8751 1.8748 -0.000135 -0.000145 -0.000157 0.0073 0.0036 0.0128
222 1 -1.8751 -1.8750 5.6250 -0.000122 0.000031 0.000004 0.0089 -0.0044 -0.0022
223 1 -1.8750 -1.8750 9.3751 0.000044 0.000033 0.000091 -0.0049 -0.0021 -0.0062
224 1 -1.8751 -1.8749 13.1250 -0.000076 0.000084 -0.000012 0.0035 0.0004 0.0086
225 1 -1.8749 1.8749 -13.1251 0.000108 -0.000141 -0.000057 -0.0244 0.0049 0.0011
226 1 -1.8750 1.8748 -9.3752 0.000033 -0.000183 -0.000160 -0.0022 0.0144 0.0074
227 1 -1.8751 1.8750 -5.6250 -0.000063 -0.000014 -0.000032 -0.0102 0.0004 -0.0063
228 1 -1.8749 1.8750 -1.8749 0.000103 -0.000036 0.000076 -0.0462 -0.0187 -0.0111
229 1 -1.8749 1.8748 1.8750 0.000065 -0.000169 0.000037 -0.0527 -0.0170 -0.0067
230 1 -1.8748 1.8749 5.6248 0.000164 -0.000056 -0.000193 -0.0589 -0.0168 0.0129
231 1 -1.8750 1.8749 9.3750 0.000036 -0.000058 -0.000022 -0.0454 -0.0116 -0.0083
232 1 -1.8750 1.8751 13.1249 0.000008 0.000078 -0.000065 -0.0346 -0.0174 0.0073
233 1 -1.8750 5.6250 -13.1251 0.000048 0.000002 -0.000109 -0.0663 -0.0358 0.0162
234 1 -1.8749 5.6250 -9.3750 0.000070 -0.000042 0.000007 -0.0520 -0.0275 -0.0099
235 1 -1.8750 5.6251 -5.6252 0.000014 0.000097 -0.000167 -0.0690 -0.0326 -0.0004
236 1 -1.8749 5.6249 -1.8750 0.000145 -0.000087 0.000007 -0.1431 -0.0178 -0.0123
237 1 -1.8751 5.6250 1.8752 -0.000057 0.000037 0.000169 -0.1423 -0.0298 -0.0078
238 1 -1.8750 5.6251 5.6251 -0.000024 0.000054 0.000070 -0.1472 -0.0319 0.0055
239 1 -1.8750 5.6252 9.3751 -0.000018 0.000195 0.000090 -0.1542 -0.0399 -0.0060
240 1 -1.8751 5.6250 13.1249 -0.000106 0.000047 -0.000085 -0.1174 -0.0276 0.0169
241 1 -1.8750 9.3748 -13.1249 -0.000026 -0.000196 0.000061 -0.1774 -0.0034 0.0042
242 1 -1.8750 9.3750 -9.3751 -0.000007 0.000007 -0.000108 -0.1555 -0.0289 0.0132
243 1 -1.8749 9.3749 -5.6249 0.000053 -0.000068 0.000107 -0.1692 -0.0113 -0.0213
244 1 -1.8750 9.3750 -1.8751 0.000014 0.000050 -0.000126 -0.1819 -0.0144 0.0035
245 1 -1.8750 9.3751 1.8749 -0.000015 0.000068 -0.000065 -0.2008 -0.0025 -0.0008
246 1 -1.8749 9.3749 5.6250 0.000070 -0.000061 -0.000008 -0.1999 0.0042 -0.0062
247 1 -1.8750 9.3750 9.3749 0.000033 -0.000032 -0.000111 -0.2014 0.0080 0.0131
248 1 -1.8751 9.3749 13.1252 -0.000106 -0.000099 0.000163 -0.1758 0.0029 -0.0065
249 1 -1.8749 13.1250 -13.1251 0.000107 0.000045 -0.000137 -0.1566 0.0150 0.0091
250 1 -1.8749 13.1249 -9.3751 0.000140 -0.000096 -0.000079 -0.1631 0.0268 0.0008
251 1 -1.8750 13.1250 -5.6250 -0.000020 -0.000031 0.000008 -0.1471 0.0203 -0.0054
252 1 -1.8749 13.1249 -1.8751 0.000061 -0.000067 -0.000057 -0.1606 0.0311 0.0025
253 1 -1.8750 13.1250 1.8750 -0.000036 0.000014 -0.000045 -0.1492 0.0247 0.0002
254 1 -1.8750 13.1250 5.6250 0.000044 -0.000045 0.000001 -0.1563 0.0252 -0.0098
255 1 -1.8751 13.1250 9.3748 -0.000104 -0.000018 -0.000214 -0.1393 0.0220 0.0166
256 1 -1.8751 13.1250 13.1251 -0.000051 -0.000006 0.000080 -0.1514 0.0221 -0.0185
257 1 1.8750 -13.1251 -13.1250 0.000023 -0.000141 -0.000013 -0.7714 0.6082 -0.0026
258 1 1.8749 -13.1249 -9.3750 -0.000147 0.000082 0.000002 -0.7607 0.5934 -0.0045
259 1 1.8749 -13.1250 -5.6251 -0.000107 0.000003 -0.000110 -0.7618 0.5918 0.0057
260 1 1.8750 -13.1249 -1.8750 0.000006 0.000095 -0.000046 -0.7708 0.5963 0.0004
261 1 1.8750 -13.1250 1.8751 0.000034 -0.000038 0.000050 -0.7650 0.5908 -0.0052
262 1 1.8748 -13.1250 5.6250 -0.000165 -0.000009 0.000013 -0.7560 0.5922 0.0043
263 1 1.8751 -13.1250 9.3751 0.000048 -0.000019 0.000090 -0.7811 0.6046 -0.0096
264 1 1.8749 -13.1250 13.1249 -0.000060 0.000039 -0.000092 -0.7634 0.5916 0.0082
265 1 1.8749 -9.3750 -13.1249 -0.000102 0.000046 0.000068 -0.2098 0.0423 0.0039
266 1 1.8750 -9.3749 -9.3750 -0.000049 0.000091 0.000019 -0.2197 0.0489 -0.0024
267 1 1.8750 -9.3751 -5.6251 0.000002 -0.000137 -0.000102 -0.2306 0.0556 0.0099
268 1 1.8750 -9.3749 -1.8749 -0.000006 0.000055 0.000068 -0.2235 0.0474 -0.0070
269 1 1.8751 -9.3751 1.8750 0.000122 -0.000093 0.000023 -0.2351 0.0559 0.0005
270 1 1.8749 -9.3750 5.6250 -0.000149 0.000014 -0.000013 -0.2125 0.0439 0.0030
271 1 1.8750 -9.3749 9.3750 0.000033 0.000131 0.000031 -0.2230 0.0392 0.0051
272 1 1.8749 -9.3750 13.1252 -0.000064 -0.000014 0.000203 -0.2296 0.0562 -0.0085
273 1 1.8750 -5.6249 -13.1250 0.000041 0.000098 0.000008 -0.2014 -0.0037 -0.0029
274 1 1.8751 -5.6249 -9.3750 0.000064 0.000109 0.000016 -0.2062 -0.0048 -0.0013
275 1 1.8751 -5.6250 -5.6250 0.000085 -0.000013 -0.000012 -0.2035 -0.0114 -0.0029
276 1 1.8750 -5.6250 -1.8751 -0.000003 -0.000013 -0.000110 -0.2052 0.0010 0.0029
277 1 1.8749 -5.6249 1.8749 -0.000051 0.000110 -0.000093 -0.1946 -0.0114 0.0001
278 1 1.8751 -5.6251 5.6250 0.000083 -0.000064 -0.000036 -0.2028 0.0025 -0.0003
279 1 1.8750 -5.6250 9.3750 -0.000004 0.000043 0.000018 -0.2068 0.0042 -0.0052
280 1 1.8749 -5.6248 13.1249 -0.000075 0.000186 -0.000062 -0.1924 -0.0071 0.0044
281 1 1.8749 -1.8750 -13.1249 -0.000136 0.000040 0.000107 -0.1866 -0.0097 0.0030
282 1 1.8750 -1.8750 -9.3749 -0.000027 -0.000026 0.000059 -0.2006 0.0051 0.0056
283 1 1.8750 -1.8752 -5.6249 -0.000038 -0.000195 0.000136 -0.2108 -0.0022 -0.0179
284 1 1.8751 -1.8751 -1.8752 0.000129 -0.000054 -0.000151 -0.2230 -0.0276 0.0127
285 1 1.8749 -1.8750 1.8751 -0.000108 -0.000020 0.000104 -0.2188 -0.0386 -0.0148
286 1 1.8749 -1.8751 5.6249 -0.000091 -0.000051 -0.000079 -0.2249 -0.0426 0.0116
287 1 1.8749 -1.8749 9.3751 -0.000099 0.000065 0.000071 -0.2201 -0.0521 -0.0050
288 1 1.8750 -1.8748 13.1251 -0.000030 0.000165 0.000059 -0.2130 -0.0427 0.0082
289 1 1.8748 1.8750 -13.1250 -0.000220 0.000025 -0.000032 -0.2977 -0.1446 0.0963
290 1 1.8750 1.8750 -9.3752 0.000030 -0.000018 -0.000223 -0.2393 -0.0651 0.0116
291 1 1.8749 1.8749 -5.6250 -0.000085 -0.000079 -0.000050 -0.3168 -0.1423 -0.1001
292 1 1.8750 1.8751 -1.8749 -0.000050 0.000129 0.000105 -0.6680 -0.5098 -0.1103
293 1 1.8750 1.8751 1.8749 0.000032 0.000077 -0.000079 -0.7663 -0.5928 0.0015
294 1 1.8751 1.8751 5.6251 0.000083 0.000110 0.000108 -0.7722 -0.6034 -0.0137
295 1 1.8751 1.8749 9.3749 0.000073 -0.000054 -0.000118 -0.7652 -0.5807 0.0267
296 1 1.8750 1.8749 13.1251 -0.000005 -0.000077 0.000093 -0.6799 -0.4890 0.0875
297 1 1.8751 5.6249 -13.1250 0.000066 -0.000122 -0.000048 -1.1487 -0.5852 0.3839
298 1 1.8751 5.6248 -9.3751 0.000048 -0.000190 -0.000128 -0.7925 -0.5811 0.0003
299 1 1.8750 5.6250 -5.6252 0.000035 0.000023 -0.000176 -1.1485 -0.5954 -0.3796
300 1 1.8750 5.6251 -1.8750 -0.000005 0.000049 -0.000036 6.0056 -0.5964 -0.3908
301 1 1.8750 5.6251 1.8750 0.000046 0.000064 -0.000027 5.6356 -0.5937 -0.0259
302 1 1.8751 5.6250 5.6249 0.000085 0.000025 -0.000056 5.6233 -0.5885 0.0036
303 1 1.8751 5.6251 9.3750 0.000084 0.000075 0.000038 5.6357 -0.5978 0.0193
304 1 1.8751 5.6251 13.1250 0.000072 0.000051 -0.000001 5.9940 -0.6070 0.3853
305 1 1.8748 9.3750 -13.1250 -0.000221 0.000021 0.000044 5.5624 -0.4576 0.0972
306 1 1.8750 9.3751 -9.3749 0.000050 0.000056 0.000091 5.6381 -0.5472 -0.0035
307 1 1.8749 9.3751 -5.6250 -0.000078 0.000115 0.000010 5.5611 -0.4591 -0.0915
308 1 1.8752 9.3749 -1.8749 0.000182 -0.000076 0.000122 5.1920 -0.0818 -0.1079
309 1 1.8750 9.3751 1.8750 -0.000005 0.000085 -0.000030 5.1079 -0.0127 -0.0015
310 1 1.8751 9.3751 5.6251 0.000083 0.000126 0.000093 5.1032 -0.0117 -0.0069
311 1 1.8750 9.3751 9.3750 -0.000027 0.000131 0.000002 5.1104 -0.0082 0.0129
312 1 1.8750 9.3749 13.1249 0.000060 -0.000149 -0.000060 5.1912 -0.0825 0.1046
313 1 1.8751 13.1251 -13.1250 0.000095 0.000061 -0.000009 5.6468 0.5511 0.0024
314 1 1.8749 13.1250 -9.3750 -0.000055 -0.000000 -0.000024 5.6575 0.5529 -0.0010
315 1 1.8750 13.1251 -5.6251 0.000058 0.000057 -0.000060 5.6432 0.5598 0.0024
316 1 1.8749 13.1251 -1.8749 -0.000082 0.000135 0.000133 5.6371 0.5751 -0.0147
317 1 1.8750 13.1249 1.8751 0.000057 -0.000091 0.000061 5.6243 0.6029 -0.0031
318 1 1.8750 13.1249 5.6249 0.000012 -0.000107 -0.000110 5.6283 0.6067 0.0076
319 1 1.8751 13.1251 9.3750 0.000085 0.000096 -0.000050 5.6210 0.5932 -0.0041
320 1 1.8750 13.1250 13.1249 -0.000020 -0.000024 -0.000092 5.6315 0.5809 0.0101
321 1 5.6250 -13.1251 -13.1250 0.000045 -0.000133 0.000003 5.0547 -6.2862 0.0034
322 1 5.6251 -13.1249 -9.3750 0.000126 0.000039 0.000035 5.0461 -6.2972 -0.0002
323 1 5.6251 -13.1251 -5.6249 0.000153 -0.000072 0.000055 5.0467 -6.2915 0.0006
324 1 5.6252 -13.1251 -1.8749 0.000197 -0.000157 0.000084 5.0497 -6.2878 0.0012
325 1 5.6251 -13.1251 1.8751 0.000068 -0.000136 0.000125 5.0544 -6.2855 -0.0108
326 1 5.6251 -13.1250 5.6249 0.000071 -0.000032 -0.000135 5.0475 -6.2947 0.0219
327 1 5.6249 -13.1250 9.3752 -0.000113 -0.000005 0.000217 5.0603 -6.2865 -0.0180
328 1 5.6251 -13.1252 13.1251 0.000105 -0.000190 0.000060 5.0508 -6.2888 0.0044
329 1 5.6251 -9.3749 -13.1250 0.000109 0.000074 0.000001 5.0489 0.0984 -0.0071
330 1 5.6251 -9.3751 -9.3750 0.000066 -0.000074 -0.000026 5.0517 0.1126 0.0072
331 1 5.6249 -9.3750 -5.6249 -0.000075 -0.000016 0.000146 5.0575 0.1004 -0.0163
332 1 5.6250 -9.3750 -1.8751 0.000010 0.000019 -0.000149 5.0550 0.0979 0.0190
333 1 5.6251 -9.3749 1.8751 0.000081 0.000090 0.000116 5.0577 0.1003 -0.0146
334 1 5.6251 -9.3751 5.6250 0.000123 -0.000066 -0.000027 5.0461 0.1110 0.0082
335 1 5.6252 -9.3748 9.3750 0.000238 0.000171 0.000047 5.0507 0.0947 -0.0109
336 1 5.6249 -9.3750 13.1248 -0.000121 -0.000035 -0.000162 5.0562 0.1028 0.0120
337 1 5.6250 -5.6250 -13.1250 0.000053 0.000041 0.000028 5.0552 -0.0028 -0.0050
338 1 5.6250 -5.6250 -9.3750 0.000026 -0.000007 -0.000023 5.0569 0.0011 0.0036
339 1 5.6250 -5.6251 -5.6250 0.000046 -0.000137 0.000028 5.0578 0.0035 0.0011
340 1 5.6249 -5.6250 -1.8749 -0.000041 -0.000040 0.000107 5.0566 0.0054 -0.0054
341 1 5.6250 -5.6249 1.8750 -0.000025 0.000124 0.000008 5.0544 -0.0056 0.0012
342 1 5.6250 -5.6250 5.6249 -0.000028 0.000043 -0.000056 5.0598 -0.0041 0.0092
343 1 5.6249 -5.6250 9.3751 -0.000070 -0.000006 0.000137 5.0575 0.0037 -0.0132
344 1 5.6250 -5.6250 13.1249 -0.000034 0.000038 -0.000059 5.0540 -0.0048 0.0102
345 1 5.6252 -1.8751 -13.1249 0.000249 -0.000070 0.000072 5.0429 -0.0189 0.0125
346 1 5.6250 -1.8749 -9.3750 0.000064 0.000089 0.000015 5.0526 -0.0090 0.0006
347 1 5.6249 -1.8751 -5.6250 -0.000061 -0.000142 -0.000022 5.0558 -0.0148 -0.0109
348 1 5.6251 -1.8749 -1.8750 0.000083 0.000053 -0.000018 5.0580 -0.0964 -0.0094
349 1 5.6251 -1.8750 1.8751 0.000113 -0.000013 0.000055 5.0485 -0.0987 -0.0025
350 1 5.6249 -1.8750 5.6251 -0.000043 0.000036 0.000053 5.0537 -0.1048 -0.0081
351 1 5.6249 -1.8751 9.3748 -0.000090 -0.000072 -0.000182 5.0543 -0.1018 0.0189
352 1 5.6252 -1.8750 13.1251 0.000174 -0.000012 0.000138 5.0495 -0.0794 -0.0015
353 1 5.6250 1.8750 -13.1249 0.000058 -0.000023 0.000078 5.0456 -0.4827 0.3819
354 1 5.6249 1.8749 -9.3750 -0.000070 -0.000088 0.000009 5.0585 -0.1218 0.0026
355 1 5.6249 1.8751 -5.6250 -0.000054 0.000125 -0.000003 5.0544 -0.4874 -0.3857
356 1 5.6251 1.8747 -1.8750 0.000121 -0.000246 -0.000025 5.0503 6.6754 -0.3874
357 1 5.6250 1.8751 1.8749 0.000009 0.000071 -0.000100 5.0563 6.3030 -0.0171
358 1 5.6250 1.8750 5.6250 0.000002 0.000065 0.000022 5.0587 6.2924 -0.0063
359 1 5.6251 1.8750 9.3750 0.000140 0.000011 -0.000021 5.0545 6.3024 0.0282
360 1 5.6250 1.8750 13.1250 -0.000031 0.000029 0.000039 5.0559 6.6657 0.3843
361 1 5.6250 5.6249 -13.1250 -0.000022 -0.000052 -0.000034 5.0587 6.2945 -7.0898
362 1 5.6251 5.6250 -9.3751 0.000137 -0.000008 -0.000075 5.0536 6.2905 0.0068
363 1 5.6250 5.6251 -5.6250 -0.000027 0.000144 0.000071 5.0580 6.2935 7.0833
ITEM: TIMESTEP
100
ITEM: NUMBER OF ATOMS
363
ITEM: BOX BOUNDS pp pp pp
-15.000000 15.000000
-15.000000 15.000000
-15.000000 15.000000
ITEM: ATOMS id type xu yu zu vx vy vz fx fy fz
1 1 -13.2754 -13.1306 -13.1203 -0.002732 0.000058 0.000024 -1.4127 0.2129 -0.0941
2 1 -13.2769 -13.1156 -9.3730 -0.002763 0.000023 0.000032 -1.4498 -0.1810 0.0760
3 1 -13.2744 -13.1275 -5.6233 -0.002849 -0.000061 0.000079 -1.7506 -0.0305 -0.0058
4 1 -13.2699 -13.1169 -1.8729 -0.002723 0.000105 -0.000141 -1.5290 0.0118 -0.2362
5 1 -13.2725 -13.1096 1.8720 -0.002757 0.000108 0.000113 -1.5871 -0.0228 0.2062
6 1 -13.2737 -13.1219 5.6231 -0.002768 0.000018 -0.000044 -1.5173 -0.0955 0.1086