ITEM: TIMESTEP
0
ITEM: NUMBER OF ATOMS
363
ITEM: BOX BOUNDS pp pp pp
-15.000000 15.000000
-15.000000 15.000000
-15.000000 15.000000
ITEM: ATOMS id type xu yu zu vx vy vz fx fy fz
1 1 0.0000 -0.0000 0.0000 -13.124987 -13.125025 -13.124990 -5.0590 0.0014 -0.0025
2 1 0.0001 0.0000 -0.0001 -13.124942 -13.124982 -9.375050 -5.0569 -0.0014 0.0031
3 1 -0.0001 -0.0000 -0.0000 -13.125051 -13.125013 -5.625018 -5.0518 0.0030 -0.0000
4 1 0.0000 -0.0000 0.0000 -13.124976 -13.125004 -1.874981 -5.0571 -0.0024 0.0013
5 1 0.0001 0.0000 0.0002 -13.124960 -13.124990 1.875091 -5.0558 -0.0024 -0.0066
6 1 0.0000 -0.0000 -0.0001 -13.124987 -13.125021 5.624964 -5.0560 -0.0008 0.0094
7 1 -0.0000 -0.0000 0.0002 -13.125013 -13.125000 9.375096 -5.0538 0.0007 -0.0079
8 1 -0.0002 -0.0002 0.0000 -13.125115 -13.125096 13.125001 -5.0523 0.0059 0.0038
9 1 -0.0001 -0.0000 -0.0000 -13.125046 -9.375009 -13.125007 -5.0551 0.0019 0.0018
10 1 0.0001 -0.0000 -0.0000 -13.124935 -9.375001 -9.375004 -5.0587 0.0027 -0.0004
11 1 -0.0001 0.0000 -0.0000 -13.125033 -9.374992 -5.625015 -5.0505 0.0008 0.0031
12 1 0.0000 -0.0001 0.0001 -13.124970 -9.375060 -1.874942 -5.0548 0.0037 -0.0071
13 1 0.0000 -0.0001 -0.0001 -13.124969 -9.375062 1.874928 -5.0570 0.0070 0.0055
14 1 -0.0000 -0.0001 -0.0001 -13.125009 -9.375057 5.624970 -5.0546 0.0033 0.0012
15 1 -0.0001 -0.0001 0.0001 -13.125065 -9.375036 9.375048 -5.0520 0.0015 -0.0030
16 1 -0.0000 -0.0000 0.0001 -13.125013 -9.375025 13.125041 -5.0544 -0.0026 -0.0012
17 1 -0.0000 0.0001 -0.0001 -13.125021 -5.624943 -13.125045 -5.0564 -0.0054 0.0020
18 1 -0.0001 0.0001 -0.0000 -13.125037 -5.624948 -9.375018 -5.0544 -0.0041 -0.0029
19 1 -0.0001 0.0001 -0.0001 -13.125042 -5.624955 -5.625064 -5.0527 -0.0002 0.0032
20 1 0.0001 -0.0000 -0.0000 -13.124967 -5.625005 -1.875008 -5.0550 -0.0023 -0.0019
21 1 0.0001 0.0001 -0.0000 -13.124962 -5.624941 1.874998 -5.0572 -0.0064 -0.0032
22 1 -0.0000 0.0000 -0.0001 -13.125007 -5.624999 5.624916 -5.0538 -0.0026 0.0066
23 1 0.0000 -0.0001 0.0001 -13.124976 -5.625029 9.375029 -5.0583 0.0003 -0.0054
24 1 -0.0001 -0.0000 -0.0000 -13.125057 -5.625022 13.124992 -5.0540 -0.0008 -0.0003
25 1 0.0001 -0.0001 -0.0000 -13.124959 -1.875033 -13.125018 -5.0568 0.0050 0.0043
26 1 0.0000 -0.0000 0.0000 -13.124996 -1.875014 -9.374983 -5.0569 0.0019 0.0012
27 1 0.0001 0.0001 0.0001 -13.124963 -1.874934 -5.624919 -5.0541 -0.0019 -0.0051
28 1 -0.0000 -0.0000 -0.0000 -13.125008 -1.875007 -1.875012 -5.0539 -0.0004 0.0026
29 1 -0.0000 -0.0000 -0.0001 -13.125006 -1.875002 1.874969 -5.0529 0.0033 0.0035
30 1 -0.0001 -0.0000 0.0001 -13.125041 -1.875010 5.625048 -5.0539 0.0011 -0.0020
31 1 -0.0000 -0.0000 0.0001 -13.125018 -1.875012 9.375062 -5.0569 0.0011 0.0002
32 1 0.0001 -0.0001 0.0001 -13.124965 -1.875033 13.125063 -5.0561 0.0017 -0.0026
33 1 -0.0000 0.0000 -0.0001 -13.125007 1.875015 -13.125042 -5.0550 -0.0044 0.0034
34 1 0.0001 -0.0000 -0.0000 -13.124954 1.874978 -9.375002 -5.0569 0.0039 -0.0030
35 1 0.0000 0.0000 -0.0001 -13.124977 1.875023 -5.625045 -5.0564 0.0004 0.0022
36 1 0.0001 -0.0000 -0.0000 -13.124930 1.874988 -1.875012 -5.0570 0.0008 0.0015
37 1 0.0001 0.0000 0.0001 -13.124961 1.875028 1.875065 -5.0562 -0.0011 -0.0052
38 1 -0.0000 0.0000 -0.0000 -13.125024 1.875008 5.624992 -5.0562 -0.0029 0.0011
39 1 0.0002 0.0001 -0.0001 -13.124889 1.875038 9.374958 -5.0587 -0.0036 0.0028
40 1 0.0000 0.0000 0.0000 -13.124994 1.875006 13.125012 -5.0554 -0.0019 -0.0040
41 1 -0.0000 -0.0001 -0.0001 -13.125015 5.624940 -13.125047 -5.0546 0.0018 0.0028
42 1 -0.0000 0.0001 -0.0000 -13.125009 5.625080 -9.375020 -5.0556 -0.0083 0.0014
43 1 0.0000 -0.0000 0.0001 -13.124996 5.624981 -5.624954 -5.0567 0.0002 -0.0035
44 1 0.0000 0.0000 0.0000 -13.124991 5.625008 -1.874998 -5.0581 -0.0014 0.0017
45 1 0.0001 0.0000 0.0000 -13.124926 5.625017 1.875004 -5.0581 0.0025 0.0016
46 1 0.0001 -0.0001 0.0001 -13.124962 5.624949 5.625055 -5.0587 0.0029 -0.0026
47 1 0.0000 -0.0000 0.0000 -13.124983 5.624985 9.375024 -5.0572 0.0023 0.0007
48 1 -0.0002 -0.0000 0.0000 -13.125121 5.624999 13.125007 -5.0544 0.0015 -0.0012
49 1 0.0001 -0.0001 -0.0000 -13.124960 9.374928 -13.125018 -5.0590 0.0028 -0.0015
50 1 0.0000 -0.0001 -0.0001 -13.124976 9.374935 -9.375055 -5.0538 0.0071 0.0021
51 1 -0.0001 -0.0001 -0.0000 -13.125043 9.374954 -5.625028 -5.0551 0.0046 -0.0009
52 1 -0.0000 -0.0000 -0.0000 -13.124999 9.374987 -1.875017 -5.0558 0.0007 0.0034
53 1 0.0000 0.0001 0.0002 -13.124974 9.375069 1.875085 -5.0543 -0.0034 -0.0046
54 1 -0.0000 -0.0000 0.0001 -13.125004 9.374981 5.625044 -5.0534 -0.0010 0.0024
55 1 0.0000 -0.0000 0.0001 -13.124971 9.374994 9.375062 -5.0563 0.0014 -0.0032
56 1 -0.0001 0.0001 -0.0000 -13.125031 9.375029 13.124982 -5.0553 -0.0016 0.0027
57 1 -0.0000 -0.0000 0.0000 -13.125011 13.124998 -13.124986 -5.0549 -0.0033 -0.0018
58 1 0.0000 -0.0000 -0.0001 -13.124989 13.124990 -9.375036 -5.0557 -0.0011 0.0047
59 1 0.0000 0.0001 0.0001 -13.124973 13.125051 -5.624953 -5.0560 -0.0056 -0.0045
60 1 -0.0001 -0.0000 -0.0000 -13.125047 13.124989 -1.875005 -5.0557 -0.0002 0.0004
61 1 -0.0001 0.0000 -0.0001 -13.125067 13.125014 1.874955 -5.0519 0.0022 0.0027
62 1 -0.0001 -0.0000 0.0000 -13.125057 13.124997 5.625004 -5.0556 -0.0016 -0.0015
63 1 -0.0000 0.0001 0.0000 -13.125016 13.125045 9.375016 -5.0534 -0.0031 -0.0008
64 1 0.0000 0.0000 0.0000 -13.124977 13.125009 13.125013 -5.0558 -0.0031 0.0002
65 1 -0.0002 0.0000 -0.0000 -9.375098 -13.124972 -13.125011 0.2066 -0.0052 -0.0006
66 1 0.0000 -0.0001 -0.0000 -9.374999 -13.125065 -9.375020 0.2032 0.0034 0.0017
67 1 0.0001 0.0000 0.0000 -9.374944 -13.124982 -5.624978 0.1960 -0.0014 -0.0012
68 1 -0.0001 -0.0000 0.0000 -9.375034 -13.125024 -1.874976 0.2034 0.0063 0.0007
69 1 0.0000 0.0000 0.0001 -9.374985 -13.124973 1.875038 0.2004 -0.0036 -0.0028
70 1 -0.0000 -0.0001 -0.0001 -9.375014 -13.125034 5.624971 0.2003 0.0048 0.0040
71 1 0.0000 -0.0001 0.0000 -9.374981 -13.125043 9.375022 0.1994 0.0009 -0.0035
72 1 -0.0000 -0.0000 -0.0000 -9.375009 -13.125016 13.124984 0.1971 0.0021 0.0015
73 1 -0.0001 -0.0000 0.0001 -9.375033 -9.375020 -13.124961 0.2009 0.0006 -0.0048
74 1 -0.0001 -0.0000 -0.0000 -9.375049 -9.375025 -9.375023 0.2074 -0.0045 0.0031
75 1 0.0002 -0.0000 0.0000 -9.374900 -9.375001 -5.624997 0.1930 -0.0013 -0.0008
76 1 0.0001 0.0001 0.0000 -9.374963 -9.374944 -1.874993 0.1978 -0.0052 0.0023
77 1 -0.0000 -0.0000 0.0001 -9.375019 -9.375014 1.875074 0.2057 0.0023 -0.0029
78 1 0.0000 -0.0000 0.0001 -9.374992 -9.375020 5.625047 0.1977 0.0013 -0.0000
79 1 0.0001 -0.0000 -0.0000 -9.374966 -9.375000 9.374998 0.1957 -0.0029 0.0006
80 1 -0.0000 0.0000 -0.0001 -9.375003 -9.374973 13.124965 0.1984 -0.0024 0.0035
81 1 -0.0001 -0.0001 0.0001 -9.375056 -5.625048 -13.124948 0.2054 0.0021 -0.0049
82 1 -0.0000 -0.0002 -0.0001 -9.375008 -5.625100 -9.375035 0.1996 0.0065 0.0043
83 1 0.0001 -0.0001 0.0000 -9.374965 -5.625054 -5.624997 0.1967 0.0049 -0.0031
84 1 0.0001 -0.0000 -0.0001 -9.374968 -5.625021 -1.875048 0.2013 0.0048 0.0067
85 1 -0.0000 0.0000 0.0002 -9.375022 -5.624989 1.875093 0.2034 -0.0007 -0.0093
86 1 0.0001 0.0001 -0.0001 -9.374967 -5.624971 5.624957 0.1982 -0.0032 0.0050
87 1 -0.0001 -0.0001 -0.0001 -9.375074 -5.625042 9.374969 0.2069 0.0049 0.0002
88 1 -0.0000 -0.0000 -0.0000 -9.375010 -5.625003 13.124994 0.2004 0.0016 0.0011
89 1 -0.0000 -0.0000 0.0001 -9.375010 -1.875013 -13.124966 0.2045 -0.0004 -0.0010
90 1 -0.0001 0.0000 0.0000 -9.375037 -1.874975 -9.374977 0.2013 -0.0057 0.0013
91 1 0.0001 0.0001 0.0001 -9.374944 -1.874971 -5.624964 0.1973 -0.0055 -0.0013
92 1 0.0001 0.0001 0.0000 -9.374965 -1.874963 -1.874989 0.1964 -0.0057 -0.0012
93 1 0.0001 0.0000 -0.0001 -9.374941 -1.874985 1.874949 0.1977 -0.0028 0.0047
94 1 -0.0000 -0.0000 0.0001 -9.375002 -1.875019 5.625035 0.2013 0.0035 -0.0065
95 1 -0.0001 0.0001 -0.0001 -9.375052 -1.874942 9.374938 0.2058 -0.0041 0.0056
96 1 0.0000 0.0000 0.0000 -9.374997 -1.874994 13.125009 0.2012 0.0026 -0.0016
97 1 0.0000 0.0000 -0.0001 -9.374998 1.875013 -13.125034 0.2009 -0.0017 -0.0012
98 1 -0.0000 -0.0000 -0.0001 -9.375010 1.874989 -9.375072 0.2026 0.0002 0.0055
99 1 -0.0000 -0.0001 0.0001 -9.375008 1.874961 -5.624942 0.2017 0.0043 -0.0073
100 1 0.0000 -0.0001 -0.0000 -9.374994 1.874930 -1.875028 0.2043 0.0046 0.0063
101 1 0.0000 -0.0001 0.0001 -9.374992 1.874942 1.875062 0.2017 0.0032 -0.0042
102 1 -0.0001 0.0001 0.0000 -9.375039 1.875038 5.625023 0.2018 -0.0025 0.0008
103 1 -0.0000 0.0001 -0.0000 -9.375012 1.875032 9.374999 0.2065 -0.0005 0.0004
104 1 -0.0000 0.0001 -0.0000 -9.375001 1.875083 13.124980 0.1997 -0.0046 0.0001
105 1 -0.0000 -0.0000 -0.0000 -9.375002 5.624997 -13.125000 0.2015 -0.0028 -0.0006
106 1 -0.0000 -0.0001 0.0000 -9.375014 5.624961 -9.374973 0.2019 0.0034 -0.0033
107 1 -0.0001 0.0000 -0.0001 -9.375041 5.625019 -5.625045 0.2063 -0.0059 0.0029
108 1 -0.0001 -0.0001 -0.0000 -9.375063 5.624961 -1.875021 0.2052 0.0005 0.0003
109 1 -0.0000 -0.0000 0.0000 -9.375016 5.624973 1.875010 0.2057 -0.0010 -0.0040
110 1 -0.0001 0.0000 -0.0001 -9.375062 5.625017 5.624932 0.2075 0.0022 0.0040
111 1 -0.0001 -0.0000 -0.0000 -9.375039 5.624992 9.374986 0.2036 0.0035 -0.0034
112 1 -0.0001 0.0000 -0.0001 -9.375074 5.625016 13.124951 0.2033 0.0037 0.0026
113 1 -0.0001 -0.0002 0.0001 -9.375073 9.374907 -13.124959 0.2063 0.0029 -0.0006
114 1 0.0001 0.0001 0.0000 -9.374945 9.375037 -9.374985 0.1980 -0.0031 -0.0012
115 1 -0.0001 -0.0002 -0.0001 -9.375029 9.374907 -5.625042 0.2004 0.0064 0.0012
116 1 -0.0000 0.0000 -0.0001 -9.375018 9.375014 -1.875065 0.2007 0.0007 0.0030
117 1 0.0001 -0.0000 0.0000 -9.374955 9.374985 1.875008 0.1991 -0.0016 -0.0028
118 1 0.0001 0.0001 0.0000 -9.374954 9.375047 5.625011 0.1990 0.0007 -0.0018
119 1 -0.0000 0.0001 -0.0001 -9.375010 9.375056 9.374963 0.1997 -0.0060 0.0041
120 1 -0.0000 0.0001 0.0001 -9.375028 9.375044 13.125043 0.2022 -0.0021 -0.0026
121 1 0.0000 -0.0001 0.0000 -9.374995 13.124919 -13.124996 0.1985 0.0028 0.0030
122 1 -0.0000 0.0000 0.0002 -9.375001 13.125007 -9.374910 0.2011 -0.0014 -0.0062
123 1 -0.0000 -0.0000 -0.0000 -9.375010 13.124994 -5.625017 0.2011 -0.0027 0.0043
124 1 -0.0001 0.0001 0.0000 -9.375052 13.125075 -1.874998 0.2023 -0.0050 -0.0012
125 1 0.0001 -0.0001 -0.0000 -9.374964 13.124963 1.874986 0.1944 0.0025 0.0020
126 1 -0.0001 0.0002 0.0000 -9.375058 13.125088 5.625027 0.2016 -0.0050 0.0002
127 1 0.0001 -0.0001 0.0001 -9.374967 13.124948 9.375065 0.1969 0.0033 -0.0031
128 1 -0.0000 -0.0000 -0.0000 -9.375010 13.124998 13.124999 0.2011 0.0015 0.0025
129 1 -0.0000 -0.0001 -0.0000 -5.625022 -13.125051 -13.125022 -0.0020 0.0042 0.0010
130 1 0.0000 0.0000 -0.0000 -5.624989 -13.124999 -9.375014 -0.0026 0.0025 -0.0007
131 1 0.0001 0.0001 -0.0000 -5.624970 -13.124921 -5.625027 0.0007 -0.0052 0.0010
132 1 -0.0000 0.0000 -0.0000 -5.625002 -13.124996 -1.875003 0.0013 -0.0001 -0.0026
133 1 -0.0000 0.0001 -0.0001 -5.625019 -13.124957 1.874957 0.0025 -0.0023 0.0026
134 1 -0.0001 0.0000 -0.0000 -5.625046 -13.124973 5.624997 0.0051 -0.0019 -0.0012
135 1 0.0000 0.0001 0.0000 -5.624984 -13.124965 9.375001 0.0015 -0.0024 0.0000
136 1 0.0000 0.0000 0.0000 -5.624998 -13.124986 13.125001 -0.0008 0.0004 -0.0010
137 1 -0.0000 0.0000 0.0001 -5.625014 -9.374992 -13.124948 0.0011 -0.0040 -0.0022
138 1 0.0001 0.0000 -0.0000 -5.624962 -9.374980 -9.375013 -0.0031 -0.0010 0.0025
139 1 0.0000 0.0000 -0.0000 -5.624992 -9.374998 -5.625008 0.0049 -0.0001 0.0019
140 1 -0.0001 0.0001 0.0001 -5.625035 -9.374968 -1.874952 0.0033 0.0010 -0.0038
141 1 0.0001 0.0000 -0.0000 -5.624924 -9.374986 1.874988 -0.0079 -0.0008 -0.0006
142 1 -0.0001 -0.0000 -0.0002 -5.625054 -9.375021 5.624914 0.0036 0.0015 0.0032
143 1 -0.0000 -0.0002 -0.0001 -5.625010 -9.375098 9.374950 0.0002 0.0067 0.0016
144 1 -0.0001 0.0001 0.0001 -5.625051 -9.374951 13.125045 0.0019 -0.0037 -0.0029
145 1 0.0001 -0.0001 -0.0000 -5.624948 -5.625044 -13.125018 -0.0052 0.0030 0.0035
146 1 -0.0000 0.0000 0.0000 -5.625007 -5.624991 -9.374996 0.0008 0.0014 -0.0013
147 1 0.0000 -0.0001 -0.0000 -5.624994 -5.625074 -5.625014 -0.0001 0.0049 0.0008
148 1 0.0001 0.0001 -0.0000 -5.624954 -5.624920 -1.875004 -0.0006 -0.0052 -0.0026
149 1 0.0000 -0.0001 -0.0001 -5.624993 -5.625037 1.874938 -0.0024 0.0030 0.0035
150 1 -0.0000 -0.0001 -0.0000 -5.625005 -5.625030 5.624999 0.0004 0.0019 -0.0006
151 1 0.0000 -0.0000 0.0001 -5.624982 -5.625024 9.375036 -0.0043 -0.0007 0.0004
152 1 0.0001 -0.0001 0.0001 -5.624972 -5.625033 13.125069 -0.0027 0.0056 -0.0038
153 1 0.0001 -0.0000 -0.0000 -5.624956 -1.875006 -13.125018 -0.0043 -0.0010 0.0014
154 1 -0.0001 0.0000 0.0000 -5.625046 -1.874978 -9.374998 0.0029 -0.0016 0.0007
155 1 -0.0000 0.0000 0.0001 -5.625024 -1.874996 -5.624958 0.0059 -0.0018 -0.0020
156 1 -0.0001 -0.0001 0.0000 -5.625033 -1.875041 -1.874984 0.0005 0.0050 0.0015
157 1 0.0001 0.0000 0.0000 -5.624968 -1.874994 1.875025 -0.0004 0.0006 -0.0033
158 1 0.0001 0.0000 -0.0001 -5.624942 -1.874978 5.624931 -0.0046 -0.0015 0.0049
159 1 0.0001 0.0001 -0.0000 -5.624936 -1.874971 9.374992 -0.0054 -0.0028 -0.0020
160 1 -0.0000 0.0001 0.0000 -5.625015 -1.874958 13.125005 0.0005 -0.0069 -0.0014
161 1 0.0000 0.0000 -0.0000 -5.624977 1.875009 -13.125001 -0.0014 0.0025 -0.0010
162 1 -0.0000 -0.0000 0.0000 -5.625012 1.874986 -9.374995 0.0018 0.0018 -0.0011
163 1 -0.0000 0.0001 -0.0000 -5.625004 1.875034 -5.625027 0.0000 -0.0025 0.0007
164 1 0.0001 -0.0000 -0.0000 -5.624961 1.874988 -1.875025 -0.0022 -0.0013 0.0003
165 1 0.0000 0.0001 -0.0000 -5.624994 1.875066 1.874987 -0.0014 -0.0051 0.0006
166 1 -0.0000 0.0001 0.0000 -5.625011 1.875029 5.625023 -0.0022 -0.0009 -0.0007
167 1 0.0000 0.0000 0.0001 -5.624978 1.875001 9.375035 -0.0014 0.0033 -0.0028
168 1 -0.0001 -0.0001 -0.0001 -5.625035 1.874919 13.124961 0.0018 0.0063 0.0036
169 1 0.0000 0.0002 -0.0001 -5.624972 5.625085 -13.125059 -0.0045 -0.0033 0.0036
170 1 0.0000 0.0000 -0.0000 -5.624977 5.625006 -9.375022 -0.0021 -0.0004 0.0008
171 1 0.0001 -0.0000 0.0001 -5.624924 5.624985 -5.624954 -0.0074 0.0044 -0.0044
172 1 0.0000 -0.0000 -0.0000 -5.624995 5.624983 -1.875025 -0.0065 -0.0000 0.0033
173 1 0.0001 -0.0000 -0.0000 -5.624966 5.624973 1.874993 -0.0031 0.0028 0.0001
174 1 0.0001 0.0000 0.0000 -5.624959 5.625008 5.625018 -0.0037 0.0021 -0.0020
175 1 -0.0000 0.0001 -0.0000 -5.625009 5.625063 9.374988 0.0005 -0.0053 0.0020
176 1 0.0001 -0.0000 0.0000 -5.624938 5.624994 13.125018 -0.0057 -0.0053 -0.0037
177 1 -0.0000 0.0001 0.0001 -5.625013 9.375052 -13.124943 -0.0004 0.0007 -0.0016
178 1 -0.0000 0.0000 0.0000 -5.625004 9.375013 -9.374976 -0.0002 0.0008 -0.0018
179 1 -0.0000 0.0001 -0.0001 -5.625012 9.375057 -5.625068 0.0026 -0.0040 0.0050
180 1 -0.0001 -0.0000 -0.0000 -5.625034 9.374976 -1.875006 0.0012 -0.0000 -0.0002
181 1 0.0000 -0.0001 0.0001 -5.624983 9.374960 1.875045 -0.0006 0.0016 -0.0024
182 1 0.0001 0.0001 0.0000 -5.624961 9.375046 5.625018 -0.0010 -0.0021 0.0025
183 1 -0.0001 -0.0001 0.0001 -5.625069 9.374967 9.375055 0.0050 0.0078 -0.0017
184 1 0.0000 -0.0001 0.0000 -5.624982 9.374940 13.125027 -0.0016 0.0031 0.0023
185 1 -0.0001 0.0000 -0.0000 -5.625044 13.125016 -13.125003 0.0035 -0.0008 -0.0005
186 1 0.0000 0.0001 -0.0000 -5.624996 13.125050 -9.375022 -0.0001 -0.0028 0.0027
187 1 -0.0001 0.0000 0.0001 -5.625030 13.125000 -5.624957 0.0019 0.0050 -0.0035
188 1 0.0000 -0.0000 -0.0000 -5.624998 13.124978 -1.875004 -0.0028 0.0006 0.0026
189 1 -0.0001 0.0000 0.0000 -5.625039 13.125001 1.875016 0.0023 0.0002 -0.0001
190 1 -0.0000 0.0000 0.0000 -5.625015 13.125019 5.625025 -0.0013 0.0009 -0.0030
191 1 -0.0001 0.0002 -0.0001 -5.625030 13.125095 9.374948 0.0040 -0.0059 0.0042
192 1 -0.0000 -0.0000 0.0000 -5.625024 13.124986 13.125004 0.0011 -0.0009 -0.0023
193 1 0.0000 -0.0001 -0.0000 -1.874996 -13.125062 -13.125014 -0.0488 0.0248 -0.0001
194 1 -0.0001 0.0001 -0.0001 -1.875050 -13.124962 -9.375035 -0.0436 0.0254 0.0013
195 1 0.0000 0.0001 -0.0000 -1.874984 -13.124938 -5.625012 -0.0473 0.0209 0.0003
196 1 0.0001 -0.0000 0.0000 -1.874936 -13.125027 -1.874978 -0.0496 0.0242 -0.0021
197 1 0.0000 0.0000 -0.0000 -1.874979 -13.124997 1.874990 -0.0504 0.0239 0.0028
198 1 0.0001 0.0000 0.0001 -1.874933 -13.124991 5.625033 -0.0540 0.0255 -0.0029
199 1 0.0001 0.0000 -0.0000 -1.874955 -13.124994 9.374988 -0.0472 0.0219 0.0021
200 1 -0.0000 0.0000 0.0000 -1.875014 -13.124993 13.125003 -0.0457 0.0213 -0.0011
201 1 0.0001 -0.0000 -0.0000 -1.874960 -9.375009 -13.125021 -0.0036 -0.0016 0.0024
202 1 0.0001 0.0002 0.0001 -1.874969 -9.374887 -9.374954 0.0005 -0.0082 -0.0040
203 1 0.0001 0.0001 -0.0000 -1.874952 -9.374931 -5.625009 -0.0013 -0.0024 0.0014
204 1 -0.0000 -0.0000 -0.0000 -1.875000 -9.375019 -1.875024 -0.0009 0.0001 0.0032
205 1 -0.0001 0.0001 0.0001 -1.875067 -9.374960 1.875057 0.0069 -0.0022 -0.0060
206 1 -0.0000 -0.0000 -0.0001 -1.875002 -9.375019 5.624964 -0.0053 0.0037 0.0057
207 1 -0.0001 0.0000 0.0000 -1.875051 -9.374991 9.375027 0.0026 -0.0025 -0.0033
208 1 -0.0001 -0.0000 -0.0000 -1.875035 -9.375010 13.124990 0.0014 0.0015 0.0007
209 1 0.0000 0.0000 0.0001 -1.874991 -5.624990 -13.124918 0.0003 -0.0005 -0.0072
210 1 0.0000 -0.0001 -0.0000 -1.874983 -5.625060 -9.375020 -0.0010 0.0077 0.0050
211 1 -0.0000 0.0000 0.0000 -1.875024 -5.624998 -5.624983 0.0011 0.0037 -0.0024
212 1 0.0001 0.0000 -0.0000 -1.874972 -5.625000 -1.875017 0.0012 -0.0000 0.0036
213 1 -0.0000 0.0000 0.0001 -1.875024 -5.624993 1.875053 0.0037 0.0018 -0.0039
214 1 -0.0001 0.0001 -0.0000 -1.875030 -5.624943 5.624999 0.0039 -0.0036 0.0017
215 1 -0.0000 -0.0001 -0.0000 -1.875009 -5.625067 9.374992 -0.0003 0.0038 -0.0010
216 1 -0.0000 0.0000 -0.0001 -1.875015 -5.624979 13.124966 -0.0013 -0.0031 0.0047
217 1 -0.0001 0.0000 -0.0001 -1.875029 -1.874989 -13.125042 0.0039 0.0000 0.0033
218 1 0.0001 -0.0000 -0.0000 -1.874964 -1.875010 -9.375019 -0.0027 -0.0007 0.0002
219 1 0.0001 0.0001 0.0000 -1.874941 -1.874970 -5.624986 -0.0041 -0.0010 -0.0006
220 1 -0.0001 0.0000 0.0000 -1.875072 -1.874979 -1.874973 0.0038 -0.0031 -0.0036
221 1 -0.0000 0.0000 -0.0001 -1.875013 -1.874977 1.874936 0.0028 0.0007 0.0057
222 1 -0.0000 0.0000 0.0000 -1.875017 -1.874980 5.625019 0.0053 -0.0006 -0.0015
223 1 0.0000 -0.0000 0.0001 -1.874978 -1.875022 9.375053 0.0012 -0.0014 -0.0011
224 1 -0.0000 -0.0001 0.0001 -1.875014 -1.875038 13.125044 0.0004 0.0040 -0.0026
225 1 -0.0000 0.0000 0.0000 -1.875001 1.875009 -13.124977 -0.0092 -0.0050 0.0058
226 1 0.0001 0.0000 -0.0001 -1.874962 1.875028 -9.375036 -0.0031 -0.0031 0.0038
227 1 0.0000 0.0000 0.0000 -1.874994 1.875025 -5.624988 -0.0123 -0.0072 -0.0091
228 1 -0.0000 -0.0001 -0.0001 -1.875000 1.874953 -1.875034 -0.0353 -0.0171 -0.0048
229 1 -0.0001 0.0001 -0.0001 -1.875030 1.875052 1.874960 -0.0462 -0.0274 0.0022
230 1 -0.0001 -0.0001 0.0000 -1.875033 1.874963 5.625022 -0.0476 -0.0196 -0.0041
231 1 0.0000 -0.0000 -0.0000 -1.874986 1.874992 9.374975 -0.0483 -0.0228 0.0048
232 1 -0.0000 0.0000 0.0001 -1.875008 1.875025 13.125069 -0.0366 -0.0177 0.0012
233 1 -0.0001 0.0001 -0.0000 -1.875066 5.625031 -13.125027 -0.0645 -0.0263 0.0164
234 1 0.0000 -0.0000 0.0000 -1.874997 5.624973 -9.374974 -0.0465 -0.0197 -0.0025
235 1 -0.0000 -0.0000 -0.0000 -1.875026 5.624976 -5.625003 -0.0663 -0.0206 -0.0108
236 1 -0.0002 -0.0001 -0.0000 -1.875100 5.624925 -1.875001 -0.1225 -0.0194 -0.0129
237 1 -0.0000 -0.0001 -0.0001 -1.875005 5.624964 1.874971 -0.1505 -0.0175 0.0031
238 1 0.0001 0.0001 0.0001 -1.874962 5.625029 5.625029 -0.1552 -0.0247 -0.0024
239 1 0.0001 0.0001 0.0000 -1.874961 5.625034 9.375016 -0.1580 -0.0255 0.0017
240 1 0.0000 0.0001 0.0001 -1.874974 5.625080 13.125040 -0.1305 -0.0309 0.0089
241 1 0.0001 -0.0000 -0.0001 -1.874961 9.374982 -13.125048 -0.1687 -0.0182 0.0068
242 1 -0.0001 0.0001 -0.0001 -1.875066 9.375036 -9.375041 -0.1481 -0.0269 0.0005
243 1 0.0001 0.0000 -0.0000 -1.874922 9.375010 -5.625005 -0.1705 -0.0208 -0.0070
244 1 -0.0000 0.0001 -0.0000 -1.875010 9.375033 -1.875004 -0.1885 -0.0110 -0.0071
245 1 -0.0001 0.0001 -0.0001 -1.875032 9.375051 1.874963 -0.1958 -0.0060 0.0015
246 1 -0.0000 0.0001 -0.0000 -1.875008 9.375059 5.624984 -0.2000 -0.0001 -0.0014
247 1 0.0000 0.0001 -0.0000 -1.874974 9.375031 9.374972 -0.2048 -0.0023 0.0010
248 1 0.0000 -0.0001 -0.0000 -1.874990 9.374920 13.124993 -0.1898 0.0006 0.0035
249 1 0.0000 -0.0001 0.0000 -1.874992 13.124931 -13.124998 -0.1544 0.0253 -0.0013
250 1 0.0000 0.0000 0.0000 -1.874998 13.125002 -9.374987 -0.1512 0.0264 -0.0008
251 1 0.0000 -0.0001 -0.0000 -1.874989 13.124971 -5.625008 -0.1567 0.0281 -0.0011
252 1 -0.0000 -0.0000 -0.0001 -1.875026 13.124991 -1.875062 -0.1527 0.0246 0.0028
253 1 -0.0001 -0.0001 -0.0000 -1.875043 13.124969 1.874974 -0.1491 0.0276 -0.0008
254 1 -0.0000 0.0001 -0.0000 -1.875005 13.125080 5.624991 -0.1545 0.0211 -0.0002
255 1 0.0000 -0.0001 0.0000 -1.874979 13.124958 9.375004 -0.1577 0.0275 -0.0023
256 1 -0.0000 -0.0001 -0.0001 -1.875005 13.124953 13.124951 -0.1521 0.0243 0.0034
257 1 -0.0000 -0.0000 -0.0001 1.874990 -13.125017 -13.125059 -0.7726 0.5974 0.0043
258 1 0.0000 0.0000 0.0000 1.875007 -13.124987 -9.374995 -0.7773 0.5921 -0.0009
259 1 0.0000 0.0000 0.0001 1.875003 -13.124973 -5.624963 -0.7718 0.5951 -0.0014
260 1 0.0001 0.0001 0.0000 1.875052 -13.124955 -1.874987 -0.7733 0.5888 0.0001
261 1 -0.0000 -0.0001 -0.0000 1.874975 -13.125058 1.874991 -0.7695 0.5978 0.0021
262 1 -0.0000 -0.0001 0.0000 1.874987 -13.125084 5.625027 -0.7703 0.5994 -0.0028
263 1 0.0001 -0.0000 -0.0000 1.875067 -13.125007 9.374976 -0.7752 0.5952 0.0029
264 1 0.0000 -0.0001 0.0000 1.875020 -13.125055 13.125009 -0.7748 0.6025 -0.0040
265 1 -0.0000 0.0001 0.0001 1.874989 -9.374952 -13.124957 -0.2220 0.0460 0.0001
266 1 0.0001 -0.0000 0.0001 1.875034 -9.375028 -9.374958 -0.2247 0.0477 -0.0034
267 1 0.0001 0.0001 -0.0001 1.875043 -9.374966 -5.625060 -0.2230 0.0464 0.0069
268 1 0.0000 -0.0002 0.0001 1.875016 -9.375107 -1.874960 -0.2248 0.0548 -0.0050
269 1 -0.0000 -0.0000 -0.0000 1.874994 -9.375023 1.874996 -0.2271 0.0479 -0.0008
270 1 -0.0002 -0.0000 -0.0001 1.874904 -9.375012 5.624936 -0.2177 0.0459 0.0044
271 1 -0.0000 -0.0000 0.0000 1.874991 -9.375028 9.375011 -0.2253 0.0485 -0.0021
272 1 0.0000 0.0001 0.0001 1.875025 -9.374930 13.125030 -0.2279 0.0433 0.0002
273 1 -0.0001 0.0001 -0.0000 1.874972 -5.624936 -13.125026 -0.1969 -0.0018 0.0014
274 1 0.0000 -0.0001 -0.0000 1.875015 -5.625042 -9.375020 -0.2006 0.0008 -0.0016
275 1 -0.0000 0.0000 -0.0001 1.874993 -5.624994 -5.625046 -0.2013 0.0015 0.0038
276 1 0.0001 -0.0001 0.0001 1.875032 -5.625030 -1.874959 -0.2018 -0.0009 -0.0058
277 1 0.0001 0.0001 -0.0001 1.875048 -5.624970 1.874968 -0.2026 -0.0042 0.0043
278 1 0.0001 0.0000 0.0000 1.875055 -5.624976 5.625024 -0.2051 -0.0018 -0.0019
279 1 -0.0001 -0.0000 0.0000 1.874955 -5.625007 9.375019 -0.1985 -0.0002 0.0003
280 1 -0.0002 0.0001 0.0000 1.874907 -5.624928 13.125020 -0.1935 -0.0011 -0.0017
281 1 0.0000 0.0000 0.0001 1.875011 -1.874982 -13.124952 -0.2078 -0.0098 0.0043
282 1 0.0001 -0.0000 0.0000 1.875039 -1.875025 -9.374991 -0.2002 -0.0019 -0.0008
283 1 0.0000 0.0000 -0.0001 1.875014 -1.874982 -5.625061 -0.2057 -0.0124 0.0008
284 1 0.0000 0.0001 0.0001 1.875017 -1.874972 -1.874939 -0.2215 -0.0361 -0.0113
285 1 0.0000 -0.0001 0.0000 1.875015 -1.875039 1.875028 -0.2272 -0.0459 0.0004
286 1 0.0001 0.0000 -0.0000 1.875051 -1.874993 5.624992 -0.2303 -0.0477 0.0029
287 1 0.0000 0.0000 0.0001 1.875005 -1.874988 9.375041 -0.2237 -0.0487 -0.0020
288 1 0.0000 0.0001 0.0000 1.875001 -1.874965 13.125028 -0.2187 -0.0362 0.0074
289 1 0.0001 0.0000 0.0000 1.875037 1.875021 -13.124999 -0.3165 -0.1412 0.0957
290 1 -0.0000 -0.0001 -0.0001 1.874997 1.874948 -9.375079 -0.2344 -0.0550 0.0057
291 1 0.0000 0.0000 0.0000 1.875003 1.875008 -5.624989 -0.3158 -0.1413 -0.0998
292 1 -0.0001 0.0001 0.0001 1.874960 1.875070 -1.874929 -0.6766 -0.5029 -0.1022
293 1 -0.0001 -0.0001 0.0001 1.874970 1.874943 1.875028 -0.7665 -0.5851 -0.0098
294 1 -0.0001 -0.0000 0.0001 1.874946 1.874974 5.625029 -0.7674 -0.5929 -0.0026
295 1 -0.0000 -0.0000 -0.0001 1.874977 1.874994 9.374958 -0.7627 -0.5861 0.0151
296 1 -0.0000 -0.0000 -0.0000 1.875000 1.874977 13.124991 -0.6763 -0.4995 0.0980
297 1 0.0001 -0.0000 -0.0000 1.875045 5.624999 -13.125026 -1.1501 -0.5952 0.3862
298 1 -0.0000 0.0001 -0.0001 1.874997 5.625042 -9.375036 -0.7978 -0.6001 -0.0007
299 1 0.0000 -0.0000 -0.0001 1.875016 5.624979 -5.625061 -1.1492 -0.5916 -0.3840
300 1 0.0000 0.0001 -0.0001 1.874999 5.625061 -1.875040 5.9962 -0.5992 -0.3849
301 1 0.0001 0.0001 0.0000 1.875027 5.625058 1.875006 5.6377 -0.5989 -0.0255
302 1 -0.0000 -0.0000 0.0000 1.874970 5.625000 5.625016 5.6291 -0.5962 -0.0004
303 1 -0.0001 0.0001 0.0000 1.874952 5.625059 9.375014 5.6416 -0.5977 0.0246
304 1 -0.0001 -0.0000 0.0000 1.874947 5.624986 13.125020 6.0023 -0.5972 0.3835
305 1 -0.0000 -0.0000 0.0002 1.874972 9.374979 -13.124891 5.5591 -0.4540 0.0921
306 1 0.0001 -0.0000 0.0000 1.875031 9.374987 -9.374988 5.6353 -0.5345 0.0037
307 1 -0.0000 0.0001 0.0000 1.874993 9.375052 -5.624993 5.5601 -0.4580 -0.0981
308 1 0.0000 -0.0001 0.0000 1.875022 9.374929 -1.874980 5.1948 -0.0860 -0.0968
309 1 0.0001 0.0001 0.0002 1.875052 9.375061 1.875085 5.1055 -0.0081 -0.0166
310 1 -0.0001 0.0000 -0.0000 1.874962 9.375003 5.624999 5.1034 -0.0013 -0.0007
311 1 0.0000 0.0001 -0.0002 1.875001 9.375043 9.374892 5.1096 -0.0061 0.0186
312 1 -0.0000 -0.0001 -0.0000 1.874981 9.374949 13.124992 5.1967 -0.0891 0.0996
313 1 0.0001 -0.0000 0.0000 1.875028 13.124972 -13.124996 5.6439 0.5600 0.0052
314 1 0.0001 -0.0000 -0.0000 1.875047 13.124980 -9.375023 5.6490 0.5491 -0.0008
315 1 -0.0001 0.0000 -0.0001 1.874957 13.125016 -5.625063 5.6461 0.5613 -0.0039
316 1 -0.0001 0.0000 -0.0001 1.874967 13.125013 -1.875036 5.6322 0.5816 -0.0059
317 1 0.0001 -0.0000 -0.0000 1.875070 13.124991 1.874994 5.6231 0.5960 -0.0016
318 1 -0.0000 -0.0000 -0.0000 1.874970 13.124979 5.624985 5.6273 0.5933 -0.0001
319 1 -0.0001 0.0000 -0.0000 1.874945 13.125010 9.374976 5.6288 0.5958 0.0019
320 1 0.0001 0.0001 0.0000 1.875045 13.125032 13.125016 5.6311 0.5776 0.0041
321 1 -0.0001 -0.0002 0.0000 5.624962 -13.125135 -13.124973 5.0562 -6.2890 -0.0019
322 1 -0.0001 0.0002 -0.0001 5.624921 -13.124904 -9.375070 5.0579 -6.2950 0.0044
323 1 0.0000 -0.0001 -0.0001 5.624997 -13.125027 -5.625038 5.0554 -6.2918 0.0017
324 1 -0.0000 0.0000 0.0001 5.624988 -13.124984 -1.874954 5.0574 -6.2933 -0.0049
325 1 0.0000 -0.0001 -0.0000 5.625007 -13.125044 1.874993 5.0541 -6.2900 0.0009
326 1 -0.0001 -0.0000 -0.0001 5.624954 -13.125019 5.624967 5.0561 -6.2893 0.0017
327 1 -0.0000 -0.0001 -0.0000 5.624984 -13.125027 9.374993 5.0583 -6.2914 0.0019
328 1 -0.0000 -0.0001 0.0001 5.624980 -13.125038 13.125068 5.0567 -6.2894 -0.0039
329 1 0.0000 -0.0000 0.0001 5.625002 -9.375007 -13.124967 5.0547 0.1010 -0.0028
330 1 0.0000 0.0000 0.0001 5.625020 -9.374991 -9.374945 5.0558 0.1075 -0.0037
331 1 0.0001 0.0000 -0.0001 5.625065 -9.374990 -5.625032 5.0548 0.1066 0.0050
332 1 0.0000 -0.0000 0.0000 5.625020 -9.375003 -1.874981 5.0551 0.1048 -0.0014
333 1 -0.0000 0.0001 0.0001 5.624977 -9.374967 1.875035 5.0554 0.1011 -0.0015
334 1 0.0000 0.0001 0.0000 5.625009 -9.374932 5.625005 5.0515 0.0982 0.0011
335 1 0.0000 0.0000 0.0000 5.625003 -9.374990 9.375000 5.0549 0.1042 -0.0025
336 1 -0.0000 0.0001 -0.0001 5.624978 -9.374953 13.124929 5.0568 0.1035 0.0056
337 1 0.0001 -0.0000 -0.0001 5.625037 -5.625001 -13.125030 5.0529 0.0014 0.0078
338 1 0.0000 -0.0001 0.0002 5.625011 -5.625036 -9.374912 5.0552 0.0026 -0.0067
339 1 -0.0000 0.0001 0.0000 5.624995 -5.624933 -5.624993 5.0549 -0.0054 0.0042
340 1 0.0000 -0.0001 0.0001 5.624998 -5.625053 -1.874964 5.0563 0.0043 -0.0009
341 1 0.0001 -0.0000 0.0001 5.625057 -5.625022 1.875036 5.0554 0.0029 -0.0012
342 1 0.0000 -0.0001 -0.0000 5.625000 -5.625063 5.624994 5.0573 0.0058 0.0020
343 1 -0.0000 0.0000 0.0000 5.624983 -5.624995 9.375010 5.0539 0.0008 0.0015
344 1 0.0001 0.0001 0.0001 5.625040 -5.624936 13.125067 5.0506 -0.0029 -0.0049
345 1 0.0000 0.0001 -0.0000 5.625015 -1.874951 -13.125007 5.0548 -0.0275 0.0080
346 1 0.0001 -0.0000 -0.0000 5.625043 -1.875002 -9.375028 5.0554 -0.0039 0.0009
347 1 -0.0000 -0.0001 -0.0000 5.624988 -1.875036 -5.625016 5.0559 -0.0192 -0.0112
348 1 0.0000 0.0000 0.0000 5.625019 -1.874976 -1.874981 5.0554 -0.0855 -0.0153
349 1 -0.0001 -0.0000 -0.0001 5.624962 -1.875001 1.874968 5.0568 -0.1066 0.0024
350 1 -0.0001 -0.0000 -0.0000 5.624944 -1.875026 5.624991 5.0586 -0.1069 -0.0008
351 1 0.0000 0.0000 -0.0000 5.625000 -1.874980 9.374996 5.0555 -0.1071 -0.0035
352 1 0.0000 -0.0000 -0.0002 5.625003 -1.875007 13.124909 5.0549 -0.0825 0.0177
353 1 0.0002 -0.0000 -0.0000 5.625094 1.874996 -13.125009 5.0536 -0.4758 0.3824
354 1 0.0000 -0.0001 -0.0000 5.625001 1.874925 -9.375022 5.0548 -0.1248 0.0015
355 1 0.0001 -0.0000 -0.0000 5.625044 1.874999 -5.625000 5.0542 -0.4802 -0.3860
356 1 -0.0000 0.0000 -0.0000 5.624990 1.874998 -1.875001 5.0540 6.6668 -0.3853
357 1 -0.0001 0.0000 0.0000 5.624963 1.874998 1.875003 5.0552 6.3049 -0.0222
358 1 0.0001 -0.0000 0.0001 5.625058 1.874989 5.625056 5.0515 6.2921 -0.0043
359 1 0.0001 -0.0000 -0.0000 5.625031 1.874995 9.374987 5.0531 6.3058 0.0244
360 1 0.0001 -0.0001 -0.0001 5.625070 1.874911 13.124927 5.0528 6.6685 0.3897
361 1 0.0000 0.0001 0.0000 5.625012 5.625026 -13.124990 5.0564 6.2918 -7.0904
362 1 -0.0001 0.0000 -0.0001 5.624948 5.625001 -9.375078 5.0567 6.2898 0.0032
363 1 -0.0001 0.0000 -0.0001 5.624947 5.625002 -5.625073 5.0575 6.2927 7.0870
ITEM: TIMESTEP
10
ITEM: NUMBER OF ATOMS
363
ITEM: BOX BOUNDS pp pp pp
-15.000000 15.000000
-15.000000 15.000000
-15.000000 15.000000
ITEM: ATOMS id type xu yu zu vx vy vz fx fy fz
1 1 -3.4070 -3.4062 -3.4066 -6.478746 -6.477088 -6.477991 -11812.0925 -11928.0443 -11804.0067
2 1 -3.4106 -3.4100 -2.4921 -6.484682 -6.483953 -4.238200 -12220.5846 -12032.6883 -234533.6062
3 1 -3.4078 -3.4095 -1.7062 -6.481999 -6.483434 -2.463477 -11044.9891 -11864.9822 -368133.7396
4 1 -3.4130 -3.4116 -0.6326 -6.485045 -6.484812 -0.809108 -14150.2585 -13071.5291 -185658.6028
5 1 -3.4100 -3.4116 0.5879 -6.484047 -6.484985 0.812045 -11983.5949 -12976.7796 144440.2979