ITEM: TIMESTEP
0
ITEM: NUMBER OF ATOMS
363
ITEM: BOX BOUNDS pp pp pp
-15.000000 15.000000
-15.000000 15.000000
-15.000000 15.000000
ITEM: ATOMS id type xu yu zu vx vy vz fx fy fz
1 1 -0.0002 0.0000 0.0001 -13.125084 -13.124981 -13.124973 -5.0528 0.0007 -0.0004
2 1 0.0001 -0.0001 0.0000 -13.124944 -13.125059 -9.374995 -5.0588 0.0032 -0.0016
3 1 0.0000 -0.0000 -0.0001 -13.124989 -13.125004 -5.625059 -5.0582 -0.0003 0.0032
4 1 -0.0001 -0.0000 -0.0001 -13.125034 -13.125019 -1.875026 -5.0535 0.0050 0.0006
5 1 0.0000 0.0000 0.0000 -13.124976 -13.124991 1.875025 -5.0548 0.0036 -0.0008
6 1 0.0000 0.0001 0.0001 -13.124980 -13.124972 5.625051 -5.0553 -0.0019 -0.0014
7 1 0.0001 -0.0000 0.0001 -13.124946 -13.125018 9.375034 -5.0556 0.0023 0.0008
8 1 -0.0001 0.0001 0.0001 -13.125069 -13.124964 13.125034 -5.0567 -0.0013 -0.0002
9 1 0.0001 0.0001 0.0000 -13.124926 -9.374947 -13.124979 -5.0590 -0.0045 0.0002
10 1 0.0001 0.0000 0.0001 -13.124941 -9.374984 -9.374973 -5.0573 -0.0048 -0.0013
11 1 0.0002 0.0000 -0.0000 -13.124920 -9.374978 -5.625012 -5.0580 -0.0017 0.0021
12 1 -0.0000 0.0001 0.0000 -13.125004 -9.374935 -1.874998 -5.0551 -0.0061 0.0016
13 1 -0.0000 0.0001 0.0001 -13.124998 -9.374926 1.875063 -5.0544 -0.0034 -0.0034
14 1 -0.0000 -0.0000 0.0000 -13.124997 -9.375016 5.625020 -5.0589 0.0039 0.0007
15 1 -0.0001 0.0000 -0.0000 -13.125045 -9.374983 9.374992 -5.0538 -0.0027 0.0020
16 1 -0.0000 -0.0000 0.0000 -13.125000 -9.375011 13.125021 -5.0550 0.0028 -0.0009
17 1 0.0000 -0.0001 0.0001 -13.124978 -5.625045 -13.124938 -5.0567 0.0059 -0.0058
18 1 0.0002 -0.0001 -0.0001 -13.124901 -5.625040 -9.375047 -5.0602 0.0065 0.0049
19 1 0.0001 0.0000 -0.0000 -13.124955 -5.624999 -5.625011 -5.0593 -0.0002 0.0017
20 1 -0.0001 -0.0001 0.0002 -13.125056 -5.625026 -1.874924 -5.0517 0.0038 -0.0066
21 1 0.0001 0.0001 -0.0000 -13.124964 -5.624962 1.874976 -5.0549 0.0011 0.0029
22 1 -0.0000 0.0001 -0.0001 -13.125016 -5.624949 5.624963 -5.0556 -0.0023 -0.0003
23 1 -0.0000 -0.0001 -0.0001 -13.125002 -5.625027 9.374956 -5.0550 0.0004 0.0016
24 1 0.0001 0.0001 0.0000 -13.124930 -5.624975 13.125002 -5.0550 -0.0005 0.0007
25 1 -0.0002 0.0000 -0.0000 -13.125081 -1.874976 -13.125011 -5.0529 -0.0038 -0.0039
26 1 -0.0000 0.0002 -0.0000 -13.125004 -1.874915 -9.375017 -5.0551 -0.0086 0.0018
27 1 -0.0000 -0.0001 0.0001 -13.125004 -1.875029 -5.624964 -5.0548 0.0003 -0.0012
28 1 -0.0001 -0.0000 0.0001 -13.125022 -1.875011 -1.874957 -5.0539 0.0003 0.0009
29 1 -0.0001 0.0001 0.0001 -13.125057 -1.874974 1.875066 -5.0556 0.0008 -0.0021
30 1 0.0001 0.0001 0.0000 -13.124960 -1.874950 5.625019 -5.0539 0.0010 0.0029
31 1 -0.0001 -0.0001 0.0001 -13.125044 -1.875053 9.375038 -5.0543 0.0046 -0.0055
32 1 -0.0000 0.0001 -0.0002 -13.125014 -1.874952 13.124897 -5.0545 -0.0003 0.0077
33 1 -0.0000 -0.0000 0.0001 -13.125005 1.874992 -13.124940 -5.0543 0.0026 0.0025
34 1 0.0000 -0.0001 0.0002 -13.124990 1.874959 -9.374875 -5.0564 0.0072 -0.0097
35 1 -0.0001 -0.0001 -0.0002 -13.125063 1.874958 -5.625097 -5.0550 -0.0006 0.0090
36 1 0.0000 0.0000 -0.0001 -13.124993 1.875015 -1.875051 -5.0555 0.0007 0.0018
37 1 0.0000 0.0001 0.0001 -13.124981 1.875032 1.875058 -5.0558 0.0003 -0.0080
38 1 0.0000 0.0001 -0.0001 -13.124976 1.875069 5.624931 -5.0578 -0.0034 0.0082
39 1 -0.0001 0.0001 0.0001 -13.125025 1.875060 9.375035 -5.0542 -0.0081 -0.0029
40 1 0.0000 0.0001 0.0001 -13.124972 1.875050 13.125051 -5.0546 -0.0003 0.0003
41 1 0.0000 0.0001 0.0001 -13.124992 5.625032 -13.124963 -5.0555 -0.0026 0.0005
42 1 -0.0001 0.0001 0.0001 -13.125032 5.625034 -9.374972 -5.0543 -0.0040 -0.0019
43 1 0.0000 -0.0001 -0.0001 -13.124976 5.624936 -5.625030 -5.0557 0.0015 0.0039
44 1 -0.0001 0.0001 0.0000 -13.125055 5.625058 -1.874979 -5.0500 -0.0018 -0.0055
45 1 -0.0001 0.0001 -0.0002 -13.125046 5.625043 1.874913 -5.0538 -0.0029 -0.0002
46 1 0.0001 -0.0000 -0.0004 -13.124968 5.624989 5.624815 -5.0537 0.0037 0.0076
47 1 -0.0001 -0.0001 -0.0001 -13.125044 5.624949 9.374960 -5.0538 0.0058 -0.0022
48 1 -0.0001 0.0001 0.0001 -13.125053 5.625040 13.125053 -5.0548 -0.0002 -0.0039
49 1 -0.0001 0.0000 -0.0000 -13.125027 9.375001 -13.125006 -5.0543 0.0010 0.0067
50 1 -0.0000 -0.0000 0.0001 -13.124999 9.374990 -9.374931 -5.0575 0.0006 -0.0030
51 1 0.0001 -0.0001 0.0001 -13.124925 9.374972 -5.624950 -5.0590 -0.0020 -0.0032
52 1 -0.0001 0.0001 -0.0001 -13.125028 9.375044 -1.875067 -5.0536 0.0007 0.0061
53 1 -0.0001 -0.0001 -0.0000 -13.125059 9.374974 1.874996 -5.0519 0.0047 -0.0003
54 1 0.0000 0.0000 0.0001 -13.124993 9.375013 5.625048 -5.0566 -0.0004 -0.0043
55 1 -0.0000 0.0000 -0.0001 -13.125013 9.375003 9.374964 -5.0515 -0.0015 0.0081
56 1 -0.0000 0.0000 0.0002 -13.124998 9.375016 13.125102 -5.0530 0.0019 -0.0086
57 1 -0.0001 -0.0000 -0.0001 -13.125041 13.124999 -13.125039 -5.0543 0.0008 0.0054
58 1 0.0000 -0.0001 0.0001 -13.124988 13.124964 -9.374971 -5.0549 -0.0000 -0.0044
59 1 0.0000 -0.0001 -0.0001 -13.124994 13.124960 -5.625025 -5.0567 0.0014 0.0003
60 1 -0.0000 0.0001 -0.0001 -13.125002 13.125041 -1.875067 -5.0556 -0.0018 0.0049
61 1 0.0001 0.0001 0.0001 -13.124946 13.125043 1.875033 -5.0569 -0.0036 -0.0044
62 1 -0.0001 0.0000 0.0000 -13.125047 13.125017 5.625011 -5.0563 0.0003 -0.0002
63 1 -0.0001 0.0000 -0.0000 -13.125034 13.125014 9.374985 -5.0552 -0.0015 0.0033
64 1 -0.0001 0.0001 0.0001 -13.125023 13.125039 13.125053 -5.0552 -0.0004 -0.0057
65 1 -0.0000 -0.0000 0.0000 -9.375002 -13.125013 -13.124999 0.1979 0.0014 -0.0017
66 1 -0.0001 0.0000 -0.0001 -9.375056 -13.124996 -9.375029 0.2076 -0.0026 0.0020
67 1 -0.0001 0.0000 0.0000 -9.375068 -13.124980 -5.624998 0.2061 -0.0031 -0.0009
68 1 0.0000 0.0001 -0.0000 -9.374981 -13.124931 -1.875002 0.1970 -0.0082 -0.0014
69 1 0.0001 0.0000 -0.0001 -9.374969 -13.124982 1.874957 0.2013 0.0003 0.0040
70 1 0.0000 0.0000 0.0001 -9.374986 -13.124989 5.625043 0.1988 -0.0021 -0.0024
71 1 0.0000 0.0000 0.0001 -9.374977 -13.124996 9.375055 0.1995 -0.0020 -0.0025
72 1 -0.0002 -0.0001 -0.0000 -9.375096 -13.125072 13.124988 0.2032 0.0022 0.0030
73 1 -0.0001 -0.0000 0.0001 -9.375047 -9.375010 -13.124964 0.2074 -0.0004 -0.0063
74 1 0.0000 -0.0001 -0.0001 -9.374998 -9.375051 -9.375045 0.2008 0.0021 0.0026
75 1 -0.0000 -0.0001 -0.0001 -9.375010 -9.375035 -5.625043 0.2058 0.0032 0.0029
76 1 -0.0000 -0.0001 0.0001 -9.375002 -9.375062 -1.874948 0.1993 0.0036 -0.0048
77 1 0.0001 0.0001 0.0000 -9.374975 -9.374959 1.875008 0.1973 -0.0015 0.0015
78 1 -0.0002 -0.0001 0.0000 -9.375100 -9.375033 5.625000 0.2089 0.0026 -0.0004
79 1 0.0000 -0.0001 -0.0000 -9.374997 -9.375040 9.374991 0.1976 0.0022 -0.0022
80 1 0.0000 0.0000 -0.0001 -9.374991 -9.374984 13.124935 0.2025 0.0010 0.0051
81 1 -0.0000 -0.0000 0.0000 -9.375017 -5.625018 -13.124999 0.2019 -0.0018 0.0016
82 1 -0.0001 -0.0001 0.0001 -9.375054 -5.625041 -9.374962 0.2072 0.0000 -0.0021
83 1 -0.0001 -0.0000 0.0000 -9.375070 -5.625003 -5.624987 0.2043 -0.0001 0.0028
84 1 0.0001 -0.0002 0.0001 -9.374947 -5.625078 -1.874949 0.1928 0.0034 -0.0049
85 1 0.0001 0.0000 -0.0001 -9.374972 -5.624990 1.874943 0.2009 0.0001 0.0079
86 1 -0.0000 0.0000 0.0001 -9.375017 -5.624998 5.625063 0.1997 0.0009 -0.0060
87 1 0.0000 -0.0000 0.0000 -9.374998 -5.625013 9.375008 0.2001 -0.0012 0.0025
88 1 0.0001 0.0002 0.0000 -9.374941 -5.624877 13.125011 0.1990 -0.0076 -0.0004
89 1 -0.0000 -0.0001 -0.0001 -9.375000 -1.875066 -13.125044 0.1958 0.0041 0.0094
90 1 0.0000 -0.0000 0.0002 -9.374999 -1.875020 -9.374900 0.2005 0.0007 -0.0104
91 1 0.0000 0.0000 -0.0001 -9.374998 -1.874983 -5.625062 0.2002 -0.0006 0.0064
92 1 0.0000 0.0000 -0.0001 -9.374987 -1.874980 -1.875028 0.2001 -0.0028 -0.0019
93 1 -0.0001 -0.0000 -0.0001 -9.375050 -1.875022 1.874966 0.2022 0.0014 -0.0004
94 1 0.0001 0.0001 -0.0001 -9.374939 -1.874937 5.624953 0.1980 -0.0040 -0.0008
95 1 -0.0000 -0.0000 -0.0001 -9.375010 -1.875006 9.374937 0.2015 -0.0028 0.0052
96 1 0.0000 -0.0000 0.0002 -9.374992 -1.875009 13.125078 0.1990 0.0074 -0.0088
97 1 0.0000 0.0000 -0.0001 -9.374980 1.875014 -13.125030 0.1975 -0.0017 -0.0001
98 1 -0.0001 0.0001 -0.0000 -9.375030 1.875029 -9.375004 0.2010 -0.0040 0.0013
99 1 -0.0001 0.0000 0.0001 -9.375041 1.875016 -5.624937 0.2037 -0.0014 -0.0040
100 1 -0.0000 0.0001 -0.0000 -9.375009 1.875036 -1.875004 0.2001 0.0010 -0.0021
101 1 -0.0000 -0.0000 -0.0003 -9.375006 1.874991 1.874866 0.2032 0.0006 0.0115
102 1 -0.0001 0.0000 0.0002 -9.375048 1.875002 5.625076 0.2028 0.0028 -0.0116
103 1 0.0000 -0.0001 -0.0001 -9.374997 1.874927 9.374944 0.1969 0.0019 0.0046
104 1 0.0001 0.0001 -0.0001 -9.374966 1.875061 13.124946 0.1977 -0.0042 0.0002
105 1 -0.0000 0.0001 -0.0002 -9.375008 5.625049 -13.125077 0.1995 -0.0018 0.0037
106 1 0.0000 -0.0001 -0.0000 -9.374999 5.624962 -9.375009 0.2004 0.0040 -0.0037
107 1 0.0000 -0.0000 -0.0001 -9.374999 5.624977 -5.625041 0.2011 0.0027 0.0032
108 1 0.0002 0.0001 0.0001 -9.374904 5.625070 -1.874973 0.1911 -0.0021 -0.0052
109 1 -0.0000 0.0000 -0.0001 -9.375000 5.625023 1.874952 0.1962 -0.0019 0.0058
110 1 0.0001 0.0000 0.0001 -9.374939 5.625016 5.625032 0.1969 -0.0027 -0.0036
111 1 -0.0000 -0.0001 -0.0000 -9.375000 5.624937 9.374997 0.1999 -0.0008 0.0008
112 1 -0.0001 -0.0000 -0.0000 -9.375032 5.624998 13.124979 0.1999 0.0011 -0.0018
113 1 0.0000 0.0000 0.0001 -9.374998 9.375022 -13.124958 0.2002 0.0011 -0.0017
114 1 -0.0001 0.0000 -0.0001 -9.375061 9.375011 -9.375044 0.2006 -0.0025 0.0033
115 1 -0.0001 0.0000 -0.0001 -9.375044 9.375013 -5.625034 0.2080 -0.0019 0.0042
116 1 0.0000 0.0001 0.0002 -9.374981 9.375036 -1.874903 0.1979 -0.0014 -0.0081
117 1 0.0001 0.0000 -0.0000 -9.374959 9.375001 1.874979 0.1942 0.0009 0.0040
118 1 -0.0001 -0.0001 -0.0000 -9.375037 9.374948 5.624976 0.2024 0.0036 -0.0002
119 1 0.0002 -0.0001 -0.0000 -9.374913 9.374941 9.374983 0.1918 0.0013 0.0029
120 1 0.0001 -0.0001 0.0001 -9.374945 9.374968 13.125070 0.1994 -0.0009 -0.0037
121 1 -0.0000 0.0000 0.0001 -9.375015 13.125023 -13.124940 0.2017 -0.0010 -0.0054
122 1 0.0000 -0.0000 -0.0001 -9.374983 13.124987 -9.375030 0.2016 0.0014 0.0030
123 1 -0.0001 -0.0000 -0.0001 -9.375030 13.124993 -5.625031 0.2014 0.0018 0.0013
124 1 -0.0000 -0.0001 0.0000 -9.375013 13.124963 -1.874992 0.2017 0.0062 -0.0006
125 1 -0.0000 -0.0000 0.0001 -9.375009 13.124999 1.875033 0.2033 0.0007 -0.0015
126 1 -0.0001 -0.0000 0.0000 -9.375063 13.124992 5.625014 0.2057 -0.0010 0.0004
127 1 -0.0001 -0.0000 0.0000 -9.375028 13.124988 9.375003 0.2010 -0.0009 -0.0002
128 1 -0.0001 -0.0002 -0.0000 -9.375027 13.124920 13.124988 0.1990 0.0012 0.0029
129 1 -0.0000 0.0000 0.0000 -5.625002 -13.124978 -13.124981 0.0027 -0.0042 -0.0025
130 1 0.0001 0.0001 0.0001 -5.624964 -13.124947 -9.374965 -0.0039 -0.0035 -0.0032
131 1 0.0000 0.0000 -0.0001 -5.624983 -13.124978 -5.625039 -0.0043 0.0006 0.0026
132 1 -0.0001 -0.0000 -0.0001 -5.625032 -13.125015 -1.875031 0.0039 0.0021 0.0020
133 1 0.0001 -0.0001 0.0001 -5.624949 -13.125032 1.875043 -0.0025 0.0002 -0.0042
134 1 -0.0001 -0.0002 -0.0000 -5.625047 -13.125088 5.624990 0.0052 0.0060 0.0012
135 1 -0.0001 0.0000 -0.0001 -5.625049 -13.124996 9.374973 0.0035 -0.0009 -0.0019
136 1 -0.0001 -0.0000 -0.0002 -5.625027 -13.125005 13.124923 -0.0003 0.0023 0.0046
137 1 0.0001 -0.0001 -0.0000 -5.624971 -9.375065 -13.125013 -0.0040 0.0056 0.0027
138 1 -0.0001 -0.0000 0.0001 -5.625055 -9.375008 -9.374974 0.0059 0.0034 -0.0003
139 1 0.0001 0.0000 0.0001 -5.624965 -9.374993 -5.624948 -0.0021 -0.0022 -0.0010
140 1 -0.0001 0.0001 0.0001 -5.625030 -9.374966 -1.874965 0.0029 -0.0018 -0.0027
141 1 -0.0001 -0.0001 -0.0001 -5.625047 -9.375030 1.874930 0.0049 -0.0006 0.0069
142 1 0.0001 0.0000 0.0001 -5.624950 -9.375000 5.625033 -0.0070 -0.0022 -0.0021
143 1 -0.0001 0.0000 0.0002 -5.625031 -9.374985 9.375076 0.0027 -0.0004 -0.0024
144 1 0.0001 -0.0000 0.0001 -5.624936 -9.375016 13.125032 -0.0035 0.0009 0.0004
145 1 -0.0000 0.0000 0.0001 -5.625015 -5.624987 -13.124971 -0.0003 -0.0041 -0.0005
146 1 -0.0000 0.0000 0.0001 -5.625017 -5.624981 -9.374950 -0.0006 -0.0013 -0.0048
147 1 -0.0001 -0.0001 -0.0001 -5.625069 -5.625069 -5.625065 0.0046 0.0049 0.0028
148 1 -0.0001 0.0000 -0.0002 -5.625063 -5.624983 -1.875088 0.0061 0.0004 0.0036
149 1 0.0000 -0.0001 0.0000 -5.624975 -5.625030 1.875015 -0.0021 -0.0013 0.0004
150 1 -0.0001 0.0001 0.0002 -5.625037 -5.624974 5.625124 0.0031 -0.0012 -0.0074
151 1 -0.0000 0.0000 0.0000 -5.625006 -5.624988 9.375004 0.0008 0.0004 0.0038
152 1 -0.0000 -0.0000 -0.0000 -5.625011 -5.625000 13.124988 0.0037 -0.0008 0.0019
153 1 -0.0001 -0.0000 0.0001 -5.625050 -1.875022 -13.124958 0.0035 0.0036 -0.0025
154 1 0.0000 -0.0000 -0.0000 -5.624999 -1.875002 -9.375004 -0.0025 0.0014 0.0015
155 1 -0.0000 0.0000 -0.0000 -5.625005 -1.874992 -5.625006 -0.0013 -0.0003 0.0001
156 1 0.0001 -0.0000 -0.0000 -5.624967 -1.875005 -1.875012 -0.0046 0.0016 0.0024
157 1 0.0000 -0.0001 0.0001 -5.624979 -1.875054 1.875035 -0.0040 -0.0000 -0.0033
158 1 -0.0000 0.0000 -0.0000 -5.625009 -1.874992 5.624980 0.0059 -0.0007 0.0029
159 1 0.0001 0.0000 0.0000 -5.624944 -1.874982 9.375004 -0.0031 -0.0004 -0.0004
160 1 -0.0000 0.0000 0.0000 -5.625012 -1.874998 13.125007 0.0023 -0.0022 0.0012
161 1 -0.0001 0.0001 -0.0001 -5.625045 1.875043 -13.125029 0.0054 -0.0041 -0.0024
162 1 -0.0001 0.0000 -0.0002 -5.625051 1.875017 -9.375079 0.0045 -0.0035 0.0024
163 1 0.0002 0.0002 -0.0001 -5.624924 1.875076 -5.625041 -0.0049 -0.0068 -0.0018
164 1 -0.0001 0.0000 -0.0001 -5.625031 1.875012 -1.875038 0.0025 0.0010 0.0012
165 1 0.0001 -0.0001 0.0000 -5.624965 1.874937 1.875004 0.0013 0.0013 -0.0040
166 1 -0.0001 -0.0001 -0.0001 -5.625040 1.874970 5.624934 0.0029 0.0019 0.0016
167 1 -0.0001 0.0000 -0.0001 -5.625071 1.875005 9.374926 0.0045 0.0004 0.0013
168 1 -0.0001 -0.0001 -0.0001 -5.625046 1.874945 13.124964 0.0071 0.0039 -0.0015
169 1 -0.0001 -0.0000 0.0000 -5.625051 5.624983 -13.124995 0.0005 0.0055 0.0009
170 1 0.0000 -0.0001 -0.0000 -5.624978 5.624943 -9.375020 -0.0047 0.0024 0.0027
171 1 -0.0000 -0.0001 0.0000 -5.625006 5.624946 -5.624983 0.0005 0.0040 -0.0017
172 1 -0.0001 0.0001 -0.0000 -5.625031 5.625051 -1.875003 0.0060 -0.0019 0.0015
173 1 -0.0001 -0.0000 0.0000 -5.625060 5.624979 1.875015 0.0044 -0.0028 -0.0016
174 1 -0.0001 -0.0000 -0.0000 -5.625031 5.624983 5.624985 0.0067 0.0023 0.0006
175 1 0.0001 -0.0000 -0.0000 -5.624971 5.624995 9.374978 0.0003 -0.0009 0.0026
176 1 -0.0000 0.0000 0.0001 -5.625018 5.625016 13.125042 0.0007 -0.0054 -0.0032
177 1 0.0000 0.0001 -0.0000 -5.624982 9.375073 -13.125003 0.0007 -0.0056 -0.0035
178 1 -0.0002 -0.0001 -0.0002 -5.625107 9.374942 -9.375082 0.0084 0.0019 0.0041
179 1 0.0001 -0.0001 -0.0001 -5.624953 9.374934 -5.625030 -0.0040 0.0043 -0.0024
180 1 -0.0000 0.0001 -0.0001 -5.625005 9.375026 -1.875041 0.0003 0.0003 0.0018
181 1 -0.0001 -0.0001 0.0000 -5.625043 9.374952 1.875013 0.0025 0.0014 0.0017
182 1 -0.0000 0.0001 0.0002 -5.625016 9.375055 5.625118 -0.0012 -0.0035 -0.0078
183 1 -0.0001 -0.0001 -0.0001 -5.625073 9.374953 9.374974 0.0072 0.0018 0.0055
184 1 0.0001 -0.0001 -0.0000 -5.624938 9.374936 13.124983 -0.0054 0.0072 -0.0002
185 1 0.0001 -0.0000 -0.0001 -5.624955 13.124989 -13.125040 -0.0039 0.0040 0.0048
186 1 0.0001 0.0000 0.0001 -5.624962 13.125006 -9.374943 -0.0019 -0.0006 -0.0056
187 1 -0.0001 0.0001 -0.0000 -5.625038 13.125055 -5.625016 -0.0015 -0.0052 0.0053
188 1 0.0000 -0.0000 0.0001 -5.624989 13.124996 -1.874948 -0.0022 0.0006 -0.0004
189 1 0.0000 -0.0000 0.0002 -5.624997 13.124977 1.875093 -0.0009 -0.0015 -0.0057
190 1 0.0001 0.0000 -0.0001 -5.624928 13.125009 5.624962 -0.0059 -0.0017 0.0068
191 1 -0.0000 -0.0001 0.0001 -5.625000 13.124963 9.375030 -0.0017 0.0007 -0.0029
192 1 -0.0001 0.0001 0.0000 -5.625072 13.125065 13.125008 0.0030 -0.0065 -0.0006
193 1 0.0002 -0.0001 -0.0001 -1.874925 -13.125062 -13.125049 -0.0531 0.0269 0.0045
194 1 0.0000 -0.0001 0.0001 -1.874986 -13.125063 -9.374963 -0.0495 0.0273 -0.0054
195 1 -0.0000 0.0002 -0.0001 -1.875018 -13.124924 -5.625027 -0.0428 0.0177 0.0046
196 1 0.0001 -0.0000 0.0001 -1.874968 -13.125017 -1.874960 -0.0534 0.0238 -0.0059
197 1 -0.0000 -0.0000 -0.0001 -1.875015 -13.125000 1.874936 -0.0448 0.0254 0.0054
198 1 0.0001 0.0000 0.0000 -1.874949 -13.124997 5.625001 -0.0520 0.0257 -0.0013
199 1 -0.0000 0.0000 0.0001 -1.875019 -13.124985 9.375031 -0.0510 0.0222 -0.0016
200 1 0.0001 0.0001 0.0000 -1.874964 -13.124968 13.125007 -0.0512 0.0191 -0.0010
201 1 -0.0000 -0.0000 0.0001 -1.875008 -9.375005 -13.124949 0.0021 -0.0008 -0.0010
202 1 0.0001 -0.0000 0.0001 -1.874933 -9.375010 -9.374968 -0.0035 -0.0005 0.0018
203 1 0.0000 -0.0001 0.0001 -1.874993 -9.375032 -5.624943 0.0035 0.0065 -0.0034
204 1 0.0000 -0.0001 -0.0000 -1.874978 -9.375064 -1.875023 -0.0016 0.0021 0.0011
205 1 0.0001 0.0001 -0.0001 -1.874970 -9.374968 1.874941 -0.0061 -0.0009 0.0029
206 1 -0.0000 0.0001 -0.0000 -1.875008 -9.374975 5.624992 0.0043 -0.0029 -0.0010
207 1 0.0000 0.0001 0.0000 -1.874980 -9.374963 9.375019 -0.0020 -0.0005 -0.0004
208 1 0.0000 -0.0000 0.0001 -1.874994 -9.375011 13.125029 0.0018 0.0027 0.0007
209 1 -0.0000 0.0001 -0.0000 -1.875018 -5.624973 -13.125023 0.0014 -0.0015 0.0024
210 1 0.0000 0.0001 0.0001 -1.875000 -5.624972 -9.374972 -0.0002 -0.0004 -0.0046
211 1 0.0001 0.0001 -0.0001 -1.874928 -5.624957 -5.625044 -0.0064 -0.0026 0.0073
212 1 -0.0000 -0.0001 0.0002 -1.875000 -5.625029 -1.874911 -0.0037 -0.0030 -0.0052
213 1 -0.0001 0.0000 0.0001 -1.875047 -5.624978 1.875045 0.0040 0.0012 -0.0011
214 1 0.0001 -0.0001 -0.0001 -1.874965 -5.625033 5.624955 -0.0034 0.0024 0.0016
215 1 0.0000 0.0001 -0.0002 -1.874993 -5.624961 9.374923 -0.0013 -0.0049 0.0033
216 1 0.0001 0.0000 -0.0000 -1.874974 -5.624978 13.124999 -0.0034 -0.0025 -0.0036
217 1 0.0000 0.0000 0.0000 -1.874997 -1.874988 -13.124996 -0.0018 0.0008 -0.0000
218 1 -0.0002 0.0001 0.0000 -1.875076 -1.874949 -9.374993 0.0027 -0.0025 0.0002
219 1 -0.0001 0.0001 0.0000 -1.875046 -1.874966 -5.624985 0.0035 -0.0002 -0.0043
220 1 -0.0002 -0.0001 -0.0002 -1.875084 -1.875060 -1.875103 0.0078 0.0002 0.0059
221 1 -0.0000 0.0001 -0.0001 -1.875016 -1.874965 1.874972 0.0035 0.0004 -0.0041
222 1 0.0002 -0.0000 -0.0001 -1.874918 -1.875018 5.624946 -0.0053 -0.0023 0.0005
223 1 0.0000 -0.0002 -0.0001 -1.874979 -1.875096 9.374948 0.0019 0.0109 0.0014
224 1 0.0001 -0.0000 -0.0000 -1.874964 -1.875012 13.124996 -0.0020 0.0052 -0.0017
225 1 0.0001 0.0000 -0.0001 -1.874964 1.875014 -13.125034 -0.0177 -0.0082 0.0130
226 1 0.0001 -0.0000 0.0002 -1.874936 1.875000 -9.374912 -0.0049 0.0006 -0.0083
227 1 0.0001 0.0000 -0.0001 -1.874966 1.875005 -5.625049 -0.0106 -0.0064 -0.0008
228 1 0.0001 -0.0001 -0.0001 -1.874969 1.874935 -1.875037 -0.0401 -0.0150 -0.0054
229 1 0.0002 0.0001 -0.0000 -1.874903 1.875039 1.874990 -0.0531 -0.0270 0.0016
230 1 0.0001 -0.0001 0.0001 -1.874946 1.874942 5.625061 -0.0502 -0.0235 -0.0061
231 1 -0.0000 0.0002 -0.0001 -1.875003 1.875089 9.374944 -0.0488 -0.0346 0.0075
232 1 0.0001 0.0002 0.0001 -1.874929 1.875094 13.125040 -0.0402 -0.0238 0.0002
233 1 -0.0001 -0.0001 -0.0001 -1.875070 5.624953 -13.125046 -0.0682 -0.0206 0.0117
234 1 -0.0002 -0.0001 -0.0003 -1.875099 5.624966 -9.375128 -0.0411 -0.0225 0.0076
235 1 0.0000 -0.0001 0.0001 -1.874992 5.624961 -5.624968 -0.0700 -0.0201 -0.0196
236 1 0.0000 0.0000 -0.0000 -1.874992 5.625024 -1.875024 -0.1284 -0.0303 -0.0089
237 1 0.0000 -0.0001 0.0000 -1.874987 5.624936 1.875006 -0.1593 -0.0187 -0.0008
238 1 0.0001 -0.0001 0.0000 -1.874937 5.624928 5.625020 -0.1589 -0.0219 -0.0011
239 1 0.0001 -0.0001 -0.0000 -1.874949 5.624956 9.374995 -0.1551 -0.0190 0.0026
240 1 0.0000 0.0000 0.0001 -1.874979 5.625014 13.125035 -0.1285 -0.0196 0.0078
241 1 0.0001 -0.0000 -0.0001 -1.874954 9.374982 -13.125059 -0.1658 -0.0190 0.0081
242 1 0.0002 -0.0001 -0.0000 -1.874890 9.374967 -9.375015 -0.1661 -0.0225 -0.0020
243 1 0.0000 0.0000 -0.0001 -1.874990 9.375020 -5.625031 -0.1610 -0.0204 -0.0051
244 1 -0.0000 -0.0001 -0.0000 -1.875020 9.374929 -1.875016 -0.1845 0.0013 -0.0040
245 1 -0.0001 -0.0001 0.0001 -1.875050 9.374973 1.875053 -0.1987 0.0002 -0.0063
246 1 -0.0001 -0.0000 -0.0001 -1.875026 9.374980 5.624939 -0.1959 -0.0001 0.0064
247 1 -0.0000 -0.0001 0.0000 -1.875016 9.374960 9.375021 -0.2015 -0.0010 -0.0045
248 1 -0.0002 0.0001 -0.0001 -1.875101 9.375033 13.124970 -0.1780 -0.0094 0.0065
249 1 -0.0000 -0.0000 0.0001 -1.875012 13.124985 -13.124975 -0.1523 0.0219 -0.0033
250 1 -0.0000 0.0000 0.0000 -1.875005 13.125003 -9.374993 -0.1515 0.0201 0.0010
251 1 -0.0001 -0.0000 0.0000 -1.875073 13.124997 -5.624983 -0.1521 0.0272 0.0007
252 1 -0.0001 0.0001 0.0001 -1.875031 13.125042 -1.874962 -0.1518 0.0178 -0.0016
253 1 -0.0000 0.0000 0.0000 -1.875007 13.125013 1.875009 -0.1549 0.0217 -0.0008
254 1 0.0001 0.0001 -0.0001 -1.874975 13.125036 5.624965 -0.1497 0.0208 0.0018
255 1 -0.0001 -0.0001 -0.0000 -1.875026 13.124950 9.374975 -0.1505 0.0261 -0.0021
256 1 -0.0000 -0.0001 -0.0001 -1.875014 13.124940 13.124942 -0.1532 0.0300 0.0038
257 1 -0.0000 0.0001 0.0001 1.874980 -13.124964 -13.124963 -0.7684 0.5907 0.0004
258 1 -0.0001 0.0001 0.0001 1.874938 -13.124975 -9.374961 -0.7638 0.5902 -0.0031
259 1 0.0001 -0.0001 -0.0001 1.875072 -13.125045 -5.625050 -0.7758 0.6007 0.0035
260 1 -0.0002 0.0000 -0.0001 1.874923 -13.124990 -1.875033 -0.7683 0.5978 0.0042
261 1 -0.0000 -0.0000 0.0002 1.874995 -13.125017 1.875112 -0.7709 0.5960 -0.0072
262 1 0.0000 0.0001 0.0001 1.875011 -13.124961 5.625030 -0.7730 0.5929 0.0012
263 1 -0.0002 -0.0001 -0.0000 1.874922 -13.125054 9.374980 -0.7697 0.5999 0.0036
264 1 -0.0000 0.0001 0.0001 1.874989 -13.124973 13.125036 -0.7683 0.5934 -0.0018
265 1 0.0000 -0.0000 -0.0000 1.875018 -9.375017 -13.125005 -0.2277 0.0489 0.0002
266 1 0.0002 -0.0002 -0.0000 1.875078 -9.375079 -9.375007 -0.2257 0.0538 0.0013
267 1 0.0002 0.0000 0.0001 1.875080 -9.374999 -5.624965 -0.2270 0.0478 -0.0017
268 1 0.0001 0.0001 0.0000 1.875029 -9.374930 -1.874979 -0.2244 0.0453 -0.0015
269 1 -0.0001 -0.0002 -0.0001 1.874933 -9.375077 1.874959 -0.2194 0.0521 0.0045
270 1 0.0001 0.0001 0.0001 1.875055 -9.374973 5.625032 -0.2291 0.0450 -0.0054
271 1 0.0000 0.0000 -0.0001 1.875010 -9.374985 9.374958 -0.2241 0.0479 0.0038
272 1 -0.0000 -0.0000 0.0000 1.874998 -9.375010 13.125003 -0.2256 0.0502 -0.0019
273 1 0.0000 -0.0001 -0.0001 1.875023 -5.625026 -13.125059 -0.2074 -0.0003 0.0028
274 1 0.0000 0.0000 0.0001 1.875015 -5.624987 -9.374964 -0.2027 -0.0012 -0.0068
275 1 0.0000 0.0001 -0.0001 1.875020 -5.624940 -5.625060 -0.1984 -0.0066 0.0054
276 1 -0.0001 0.0001 -0.0000 1.874960 -5.624951 -1.875000 -0.1993 0.0001 -0.0034
277 1 0.0000 0.0000 -0.0000 1.875003 -5.624982 1.874981 -0.2004 -0.0061 0.0019
278 1 0.0000 -0.0001 0.0000 1.875011 -5.625058 5.625021 -0.2022 0.0062 -0.0007
279 1 -0.0000 0.0002 0.0001 1.874989 -5.624901 9.375037 -0.2001 -0.0060 -0.0039
280 1 -0.0001 0.0001 -0.0001 1.874964 -5.624974 13.124931 -0.1967 -0.0024 0.0036
281 1 0.0000 -0.0001 -0.0001 1.875004 -1.875037 -13.125047 -0.2045 -0.0114 0.0101
282 1 -0.0001 0.0001 -0.0001 1.874939 -1.874926 -9.375028 -0.2002 -0.0052 -0.0012
283 1 0.0000 -0.0001 -0.0001 1.875017 -1.875066 -5.625032 -0.2115 -0.0057 -0.0021
284 1 0.0001 0.0000 0.0001 1.875027 -1.874977 -1.874927 -0.2238 -0.0367 -0.0115
285 1 0.0001 -0.0001 0.0000 1.875048 -1.875049 1.875001 -0.2281 -0.0407 0.0029
286 1 0.0000 0.0001 0.0000 1.875016 -1.874957 5.625002 -0.2219 -0.0507 0.0003
287 1 0.0001 -0.0000 0.0000 1.875037 -1.875006 9.375003 -0.2239 -0.0439 0.0020
288 1 0.0000 -0.0000 0.0001 1.875024 -1.875006 13.125057 -0.2176 -0.0365 0.0008
289 1 -0.0001 -0.0001 -0.0001 1.874947 1.874972 -13.125027 -0.3132 -0.1425 0.0988
290 1 0.0000 -0.0001 0.0000 1.875024 1.874969 -9.374999 -0.2328 -0.0542 -0.0011
291 1 0.0000 -0.0000 -0.0000 1.875016 1.874998 -5.625000 -0.3165 -0.1429 -0.0975
292 1 -0.0001 -0.0001 0.0001 1.874971 1.874953 -1.874959 -0.6733 -0.4971 -0.1009
293 1 -0.0000 0.0002 0.0000 1.874980 1.875083 1.875022 -0.7604 -0.5994 -0.0138
294 1 0.0001 0.0001 -0.0001 1.875071 1.875042 5.624942 -0.7742 -0.5931 0.0058
295 1 0.0001 -0.0000 0.0001 1.875036 1.874981 9.375035 -0.7674 -0.5872 0.0053
296 1 0.0001 -0.0001 -0.0001 1.875051 1.874939 13.124940 -0.6784 -0.4995 0.1031
297 1 0.0000 -0.0001 -0.0000 1.875015 5.624935 -13.125021 -1.1509 -0.5942 0.3878
298 1 -0.0000 0.0000 0.0000 1.874979 5.625001 -9.374987 -0.8036 -0.5978 -0.0010
299 1 0.0001 -0.0000 0.0000 1.875058 5.624993 -5.624988 -1.1490 -0.5947 -0.3871
300 1 0.0001 0.0000 -0.0001 1.875069 5.625024 -1.875034 5.9982 -0.6013 -0.3796
301 1 -0.0001 -0.0002 0.0002 1.874922 5.624924 1.875082 5.6413 -0.5877 -0.0341
302 1 -0.0000 0.0002 -0.0002 1.874991 5.625083 5.624909 5.6289 -0.5971 0.0070
303 1 0.0000 0.0001 -0.0001 1.875015 5.625030 9.374944 5.6398 -0.5939 0.0248
304 1 0.0001 -0.0001 0.0000 1.875069 5.624964 13.125012 5.9984 -0.5960 0.3819
305 1 0.0001 -0.0001 -0.0001 1.875036 9.374933 -13.125035 5.5578 -0.4537 0.1021
306 1 -0.0001 -0.0001 0.0001 1.874950 9.374953 -9.374965 5.6440 -0.5330 -0.0018
307 1 0.0002 -0.0000 0.0001 1.875077 9.374997 -5.624952 5.5552 -0.4517 -0.1002
308 1 0.0002 -0.0002 0.0000 1.875086 9.374920 -1.874981 5.1924 -0.0861 -0.0997
309 1 0.0000 -0.0000 -0.0001 1.875003 9.374983 1.874969 5.1064 -0.0048 -0.0082
310 1 0.0002 0.0001 0.0001 1.875096 9.375049 5.625025 5.0987 -0.0012 -0.0029
311 1 0.0000 0.0002 -0.0000 1.875016 9.375105 9.374992 5.1070 -0.0106 0.0124
312 1 0.0001 -0.0001 -0.0000 1.875056 9.374972 13.124981 5.1901 -0.0926 0.0988
313 1 -0.0001 -0.0001 0.0001 1.874965 13.124962 -13.124965 5.6448 0.5609 0.0027
314 1 0.0000 -0.0000 -0.0001 1.875000 13.124991 -9.375029 5.6505 0.5475 0.0024
315 1 -0.0001 0.0002 -0.0000 1.874938 13.125075 -5.625018 5.6433 0.5526 -0.0066
316 1 -0.0001 0.0000 -0.0000 1.874968 13.125020 -1.875022 5.6325 0.5791 -0.0029
317 1 -0.0001 0.0001 0.0001 1.874937 13.125072 1.875058 5.6281 0.5890 -0.0044
318 1 0.0001 -0.0000 0.0000 1.875066 13.124978 5.625012 5.6255 0.5997 0.0031
319 1 0.0001 0.0001 0.0001 1.875023 13.125031 9.375047 5.6249 0.5950 -0.0024
320 1 0.0001 0.0000 0.0000 1.875042 13.125008 13.125008 5.6307 0.5830 0.0084
321 1 -0.0000 0.0000 0.0001 5.624979 -13.124971 -13.124961 5.0549 -6.2932 -0.0016
322 1 0.0002 0.0001 0.0000 5.625106 -13.124950 -9.374998 5.0495 -6.2917 0.0013
323 1 0.0001 -0.0001 0.0000 5.625038 -13.125049 -5.625000 5.0565 -6.2889 0.0030
324 1 -0.0001 0.0001 0.0002 5.624938 -13.124966 -1.874922 5.0541 -6.2921 -0.0059
325 1 0.0001 -0.0001 -0.0000 5.625025 -13.125041 1.874989 5.0545 -6.2903 0.0062
326 1 -0.0001 -0.0000 0.0001 5.624940 -13.125019 5.625073 5.0575 -6.2932 -0.0055
327 1 -0.0001 0.0002 0.0000 5.624942 -13.124882 9.375007 5.0541 -6.2953 0.0033
328 1 0.0001 -0.0001 0.0001 5.625040 -13.125061 13.125030 5.0538 -6.2941 -0.0005
329 1 -0.0001 0.0000 -0.0001 5.624948 -9.374990 -13.125061 5.0577 0.1039 0.0042
330 1 0.0001 0.0001 -0.0001 5.625032 -9.374930 -9.375028 5.0569 0.1051 -0.0003
331 1 0.0002 0.0001 0.0000 5.625073 -9.374934 -5.624993 5.0558 0.1025 0.0011
332 1 0.0000 0.0001 0.0001 5.625020 -9.374959 -1.874927 5.0558 0.1052 -0.0048
333 1 -0.0000 0.0001 0.0000 5.624988 -9.374968 1.875003 5.0529 0.1048 0.0053
334 1 -0.0001 -0.0000 0.0001 5.624969 -9.375022 5.625074 5.0583 0.1059 -0.0035
335 1 0.0000 0.0000 0.0001 5.624997 -9.374980 9.375042 5.0559 0.1078 0.0011
336 1 -0.0001 -0.0002 0.0001 5.624951 -9.375078 13.125030 5.0565 0.1088 -0.0028
337 1 -0.0002 -0.0001 -0.0001 5.624872 -5.625065 -13.125050 5.0597 0.0036 0.0072
338 1 -0.0001 0.0001 0.0002 5.624968 -5.624944 -9.374910 5.0568 -0.0052 -0.0106
339 1 0.0001 0.0002 -0.0001 5.625022 -5.624916 -5.625071 5.0553 -0.0023 0.0092
340 1 -0.0001 0.0001 0.0001 5.624968 -5.624967 -1.874968 5.0545 -0.0035 -0.0041
341 1 0.0001 0.0001 0.0000 5.625052 -5.624932 1.875020 5.0540 -0.0022 0.0012
342 1 -0.0001 -0.0000 0.0001 5.624944 -5.625014 5.625034 5.0571 0.0019 -0.0024
343 1 -0.0000 -0.0001 -0.0000 5.624989 -5.625035 9.374978 5.0550 0.0015 0.0027
344 1 0.0000 -0.0000 0.0000 5.625017 -5.625000 13.125005 5.0536 -0.0032 -0.0029
345 1 0.0001 -0.0001 -0.0001 5.625051 -1.875029 -13.125039 5.0541 -0.0211 0.0164
346 1 -0.0000 -0.0002 0.0001 5.624983 -1.875105 -9.374962 5.0534 0.0111 -0.0017
347 1 -0.0001 0.0001 0.0001 5.624936 -1.874971 -5.624940 5.0576 -0.0249 -0.0170
348 1 -0.0000 -0.0001 -0.0001 5.624984 -1.875064 -1.875069 5.0567 -0.0750 -0.0066
349 1 0.0000 0.0001 -0.0001 5.624998 -1.874969 1.874970 5.0569 -0.1035 -0.0019
350 1 0.0000 0.0001 -0.0001 5.625020 -1.874953 5.624965 5.0552 -0.1105 0.0014
351 1 0.0001 -0.0001 0.0000 5.625056 -1.875039 9.375007 5.0548 -0.1064 -0.0014
352 1 0.0001 -0.0000 0.0000 5.625031 -1.875013 13.125005 5.0548 -0.0816 0.0103
353 1 -0.0000 0.0002 -0.0000 5.624992 1.875084 -13.125006 5.0533 -0.4862 0.3841
354 1 0.0001 0.0001 -0.0001 5.625057 1.875057 -9.375051 5.0547 -0.1375 0.0045
355 1 0.0001 -0.0001 0.0001 5.625025 1.874936 -5.624964 5.0549 -0.4745 -0.3895
356 1 0.0001 0.0001 0.0000 5.625068 1.875039 -1.874991 5.0519 6.6626 -0.3847
357 1 0.0001 0.0001 -0.0000 5.625025 1.875049 1.874996 5.0535 6.3042 -0.0230
358 1 0.0000 -0.0000 0.0000 5.625013 1.874976 5.625008 5.0572 6.2951 -0.0022
359 1 0.0001 -0.0001 -0.0001 5.625043 1.874951 9.374954 5.0550 6.3049 0.0276
360 1 0.0001 -0.0000 0.0000 5.625033 1.874978 13.125004 5.0559 6.6663 0.3832
361 1 -0.0001 -0.0000 -0.0000 5.624944 5.624988 -13.125017 5.0578 6.2964 -7.0866
362 1 -0.0003 0.0000 0.0000 5.624860 5.625001 -9.374995 5.0587 6.2949 0.0012
363 1 0.0000 -0.0000 0.0001 5.625000 5.624983 -5.624944 5.0575 6.2910 7.0857
ITEM: TIMESTEP
10
ITEM: NUMBER OF ATOMS
363
ITEM: BOX BOUNDS pp pp pp
-15.000000 15.000000
-15.000000 15.000000
-15.000000 15.000000
ITEM: ATOMS id type xu yu zu vx vy vz fx fy fz
1 1 nan nan nan nan nan nan 0.0000 0.0000 0.0000
2 1 nan nan nan nan nan nan 0.0000 0.0000 0.0000
3 1 nan nan nan nan nan nan 0.0000 0.0000 0.0000
4 1 nan nan nan nan nan nan 0.0000 0.0000 0.0000
5 1 nan nan nan nan nan nan 0.0000 0.0000 0.0000
6 1 nan nan nan nan nan nan 0.0000 0.0000 0.0000
7 1 nan nan nan nan nan nan 0.0000 0.0000 0.0000
8 1 nan nan nan nan nan nan 0.0000 0.0000 0.0000
9 1 nan nan nan nan nan nan 0.0000 0.0000 0.0000
10 1 nan nan nan nan nan nan 0.0000 0.0000 0.0000
11 1 nan nan nan nan nan nan 0.0000 0.0000 0.0000