ITEM: TIMESTEP
0
ITEM: NUMBER OF ATOMS
363
ITEM: BOX BOUNDS pp pp pp
-15.000000 15.000000
-15.000000 15.000000
-15.000000 15.000000
ITEM: ATOMS id type xu yu zu vx vy vz fx fy fz
1 1 -13.1250 -13.1251 -13.1249 -0.000023 -0.000111 0.000125 -5.0553 0.0042 -0.0072
2 1 -13.1251 -13.1251 -9.3750 -0.000101 -0.000079 -0.000037 -5.0522 0.0084 0.0091
3 1 -13.1251 -13.1250 -5.6249 -0.000145 0.000019 0.000051 -5.0533 0.0002 0.0003
4 1 -13.1250 -13.1250 -1.8749 -0.000025 -0.000050 0.000139 -5.0531 -0.0006 -0.0130
5 1 -13.1251 -13.1249 1.8748 -0.000086 0.000058 -0.000150 -5.0502 -0.0009 0.0154
6 1 -13.1251 -13.1250 5.6250 -0.000104 -0.000030 0.000011 -5.0528 0.0018 -0.0077
7 1 -13.1250 -13.1250 9.3750 0.000014 -0.000006 -0.000031 -5.0558 -0.0013 0.0051
8 1 -13.1249 -13.1249 13.1251 0.000122 0.000055 0.000069 -5.0628 -0.0062 -0.0005
9 1 -13.1250 -9.3752 -13.1249 0.000021 -0.000156 0.000097 -5.0574 0.0061 -0.0117
10 1 -13.1251 -9.3749 -9.3750 -0.000084 0.000072 0.000018 -5.0569 -0.0083 0.0045
11 1 -13.1250 -9.3751 -5.6249 0.000018 -0.000053 0.000060 -5.0578 0.0036 -0.0021
12 1 -13.1251 -9.3751 -1.8750 -0.000086 -0.000053 0.000031 -5.0507 -0.0000 0.0008
13 1 -13.1249 -9.3750 1.8750 0.000067 0.000023 0.000024 -5.0575 0.0028 0.0068
14 1 -13.1249 -9.3750 5.6252 0.000115 -0.000039 0.000183 -5.0567 0.0076 -0.0104
15 1 -13.1250 -9.3750 9.3750 -0.000051 -0.000004 0.000023 -5.0492 0.0028 -0.0001
16 1 -13.1252 -9.3750 13.1249 -0.000184 -0.000014 -0.000148 -5.0479 -0.0018 0.0143
17 1 -13.1250 -5.6250 -13.1250 -0.000028 -0.000013 0.000039 -5.0538 -0.0011 -0.0026
18 1 -13.1251 -5.6250 -9.3749 -0.000106 -0.000021 0.000054 -5.0476 0.0044 -0.0036
19 1 -13.1250 -5.6250 -5.6250 -0.000024 -0.000022 -0.000035 -5.0499 0.0016 0.0049
20 1 -13.1250 -5.6251 -1.8750 -0.000027 -0.000051 0.000018 -5.0585 -0.0041 -0.0063
21 1 -13.1250 -5.6249 1.8749 -0.000013 0.000064 -0.000109 -5.0512 -0.0053 0.0098
22 1 -13.1251 -5.6248 5.6251 -0.000094 0.000163 0.000059 -5.0576 -0.0111 -0.0082
23 1 -13.1248 -5.6249 9.3750 0.000139 0.000071 0.000007 -5.0569 -0.0047 -0.0004
24 1 -13.1249 -5.6251 13.1249 0.000037 -0.000140 -0.000052 -5.0549 0.0010 0.0053
25 1 -13.1249 -1.8749 -13.1250 0.000038 0.000082 -0.000005 -5.0600 -0.0074 0.0037
26 1 -13.1250 -1.8750 -9.3750 0.000014 0.000019 0.000045 -5.0584 -0.0063 -0.0027
27 1 -13.1251 -1.8750 -5.6250 -0.000105 0.000037 0.000023 -5.0565 0.0001 -0.0006
28 1 -13.1252 -1.8752 -1.8750 -0.000171 -0.000154 -0.000019 -5.0568 0.0082 0.0032
29 1 -13.1249 -1.8750 1.8750 0.000034 -0.000043 0.000012 -5.0561 0.0068 -0.0001
30 1 -13.1250 -1.8750 5.6250 -0.000048 0.000033 0.000019 -5.0564 0.0035 -0.0007
31 1 -13.1251 -1.8750 9.3750 -0.000107 0.000010 0.000005 -5.0513 0.0064 0.0022
32 1 -13.1252 -1.8752 13.1251 -0.000188 -0.000218 0.000052 -5.0493 0.0152 -0.0037
33 1 -13.1251 1.8750 -13.1249 -0.000140 -0.000049 0.000104 -5.0530 0.0097 -0.0016
34 1 -13.1250 1.8749 -9.3749 -0.000020 -0.000113 0.000099 -5.0585 0.0045 -0.0028
35 1 -13.1249 1.8751 -5.6250 0.000046 0.000074 0.000014 -5.0534 0.0008 -0.0086
36 1 -13.1251 1.8750 -1.8753 -0.000127 -0.000005 -0.000312 -5.0475 -0.0090 0.0169
37 1 -13.1249 1.8750 1.8749 0.000044 0.000037 -0.000124 -5.0548 -0.0047 -0.0055
38 1 -13.1249 1.8750 5.6249 0.000092 -0.000018 -0.000051 -5.0535 0.0090 -0.0061
39 1 -13.1250 1.8751 9.3749 -0.000016 0.000118 -0.000123 -5.0535 -0.0060 0.0081
40 1 -13.1251 1.8752 13.1250 -0.000109 0.000164 0.000044 -5.0512 -0.0247 -0.0035
41 1 -13.1250 5.6251 -13.1250 -0.000009 0.000093 0.000027 -5.0538 -0.0117 -0.0044
42 1 -13.1253 5.6249 -9.3748 -0.000271 -0.000102 0.000153 -5.0498 0.0032 -0.0167
43 1 -13.1249 5.6251 -5.6252 0.000045 0.000108 -0.000205 -5.0583 -0.0022 0.0246
44 1 -13.1251 5.6249 -1.8749 -0.000084 -0.000091 0.000128 -5.0548 0.0009 -0.0101
45 1 -13.1250 5.6250 1.8751 -0.000019 -0.000021 0.000149 -5.0594 0.0046 -0.0006
46 1 -13.1251 5.6252 5.6251 -0.000089 0.000177 0.000112 -5.0575 -0.0056 0.0002
47 1 -13.1251 5.6250 9.3751 -0.000067 0.000048 0.000061 -5.0522 -0.0010 -0.0079
48 1 -13.1251 5.6248 13.1248 -0.000074 -0.000154 -0.000225 -5.0529 0.0203 0.0187
49 1 -13.1250 9.3749 -13.1251 0.000025 -0.000116 -0.000082 -5.0538 0.0134 -0.0040
50 1 -13.1251 9.3750 -9.3751 -0.000149 0.000033 -0.000050 -5.0539 -0.0056 -0.0083
51 1 -13.1250 9.3751 -5.6252 0.000005 0.000053 -0.000231 -5.0529 0.0042 0.0196
52 1 -13.1250 9.3749 -1.8748 -0.000063 -0.000132 0.000155 -5.0536 0.0031 -0.0219
53 1 -13.1250 9.3750 1.8749 -0.000013 0.000049 -0.000079 -5.0598 -0.0018 0.0175
54 1 -13.1251 9.3752 5.6252 -0.000072 0.000183 0.000190 -5.0539 -0.0040 -0.0177
55 1 -13.1251 9.3749 9.3749 -0.000147 -0.000060 -0.000052 -5.0508 0.0030 0.0027
56 1 -13.1251 9.3751 13.1248 -0.000150 0.000106 -0.000207 -5.0574 -0.0148 0.0091
57 1 -13.1249 13.1251 -13.1250 0.000098 0.000061 -0.000015 -5.0600 -0.0119 -0.0017
58 1 -13.1250 13.1250 -9.3750 0.000008 0.000006 -0.000037 -5.0570 -0.0025 0.0012
59 1 -13.1249 13.1251 -5.6250 0.000067 0.000092 -0.000023 -5.0627 -0.0030 0.0005
60 1 -13.1250 13.1249 -1.8750 0.000004 -0.000055 -0.000003 -5.0595 -0.0032 0.0029
61 1 -13.1251 13.1251 1.8751 -0.000068 0.000068 0.000116 -5.0524 -0.0006 -0.0110
62 1 -13.1250 13.1250 5.6249 0.000026 0.000042 -0.000098 -5.0589 0.0025 0.0074
63 1 -13.1250 13.1250 9.3749 -0.000060 -0.000050 -0.000094 -5.0533 0.0004 0.0017
64 1 -13.1249 13.1249 13.1250 0.000046 -0.000063 -0.000033 -5.0533 0.0103 -0.0013
65 1 -9.3750 -13.1251 -13.1251 0.000004 -0.000110 -0.000054 0.1994 -0.0057 -0.0033
66 1 -9.3750 -13.1250 -9.3751 0.000006 -0.000027 -0.000057 0.1925 0.0077 0.0031
67 1 -9.3750 -13.1249 -5.6250 -0.000048 0.000098 0.000034 0.1946 -0.0145 -0.0069
68 1 -9.3750 -13.1251 -1.8751 0.000036 -0.000096 -0.000071 0.1932 0.0014 0.0058
69 1 -9.3749 -13.1248 1.8750 0.000079 0.000215 0.000001 0.1935 -0.0094 -0.0008
70 1 -9.3750 -13.1250 5.6250 0.000002 0.000041 0.000035 0.1950 0.0004 0.0000
71 1 -9.3750 -13.1252 9.3750 0.000005 -0.000153 0.000048 0.2076 0.0192 -0.0058
72 1 -9.3751 -13.1250 13.1249 -0.000104 -0.000039 -0.000121 0.2061 -0.0003 0.0079
73 1 -9.3750 -9.3752 -13.1250 -0.000044 -0.000178 0.000042 0.2057 0.0023 -0.0014
74 1 -9.3751 -9.3749 -9.3750 -0.000104 0.000100 0.000032 0.2021 -0.0010 -0.0039
75 1 -9.3751 -9.3751 -5.6251 -0.000060 -0.000091 -0.000091 0.2075 0.0020 0.0061
76 1 -9.3749 -9.3751 -1.8750 0.000071 -0.000079 -0.000027 0.1930 -0.0010 -0.0032
77 1 -9.3750 -9.3749 1.8750 0.000002 0.000125 -0.000046 0.2002 0.0015 -0.0009
78 1 -9.3749 -9.3751 5.6249 0.000054 -0.000054 -0.000080 0.2004 0.0004 0.0020
79 1 -9.3749 -9.3750 9.3750 0.000147 0.000032 -0.000024 0.1954 -0.0055 -0.0016
80 1 -9.3749 -9.3750 13.1250 0.000077 -0.000039 0.000005 0.1882 -0.0041 0.0008
81 1 -9.3750 -5.6251 -13.1251 0.000034 -0.000144 -0.000078 0.1950 0.0048 0.0056
82 1 -9.3749 -5.6248 -9.3750 0.000131 0.000168 0.000031 0.1926 -0.0080 -0.0042
83 1 -9.3749 -5.6252 -5.6250 0.000128 -0.000210 0.000020 0.1858 0.0072 -0.0047
84 1 -9.3751 -5.6251 -1.8751 -0.000108 -0.000064 -0.000125 0.2106 0.0008 0.0107
85 1 -9.3749 -5.6250 1.8751 0.000113 0.000042 0.000052 0.1995 0.0008 -0.0057
86 1 -9.3751 -5.6251 5.6251 -0.000111 -0.000109 0.000051 0.2113 -0.0014 0.0020
87 1 -9.3749 -5.6249 9.3751 0.000068 0.000055 0.000088 0.2018 0.0000 -0.0043
88 1 -9.3750 -5.6251 13.1250 0.000040 -0.000149 -0.000008 0.2030 0.0098 0.0006
89 1 -9.3751 -1.8749 -13.1249 -0.000102 0.000058 0.000061 0.2119 -0.0131 -0.0001
90 1 -9.3751 -1.8750 -9.3750 -0.000072 -0.000033 -0.000020 0.2102 0.0062 0.0045
91 1 -9.3751 -1.8751 -5.6250 -0.000108 -0.000075 0.000037 0.2026 -0.0056 -0.0028
92 1 -9.3752 -1.8750 -1.8750 -0.000173 -0.000020 0.000008 0.2099 -0.0022 -0.0024
93 1 -9.3750 -1.8750 1.8749 0.000009 -0.000035 -0.000110 0.2021 0.0028 0.0095
94 1 -9.3751 -1.8752 5.6251 -0.000056 -0.000162 0.000055 0.2041 0.0022 -0.0061
95 1 -9.3750 -1.8749 9.3750 0.000033 0.000060 0.000049 0.1909 -0.0004 0.0032
96 1 -9.3750 -1.8750 13.1251 0.000023 0.000025 0.000117 0.1920 -0.0101 -0.0034
97 1 -9.3750 1.8749 -13.1250 -0.000040 -0.000100 -0.000039 0.2012 0.0059 0.0103
98 1 -9.3751 1.8749 -9.3749 -0.000106 -0.000068 0.000104 0.2082 0.0090 -0.0084
99 1 -9.3749 1.8749 -5.6250 0.000087 -0.000067 -0.000014 0.2006 -0.0005 -0.0010
100 1 -9.3749 1.8750 -1.8752 0.000115 -0.000048 -0.000151 0.1879 -0.0007 0.0106
101 1 -9.3749 1.8750 1.8750 0.000062 -0.000040 0.000017 0.2009 0.0006 -0.0047
102 1 -9.3749 1.8749 5.6250 0.000128 -0.000115 0.000034 0.1972 -0.0003 -0.0040
103 1 -9.3750 1.8750 9.3749 0.000041 0.000028 -0.000072 0.1991 -0.0007 0.0102
104 1 -9.3750 1.8749 13.1251 0.000019 -0.000094 0.000113 0.1890 0.0068 -0.0116
105 1 -9.3750 5.6249 -13.1250 0.000024 -0.000082 -0.000039 0.1970 0.0009 -0.0019
106 1 -9.3751 5.6252 -9.3751 -0.000056 0.000151 -0.000075 0.1956 -0.0139 0.0037
107 1 -9.3750 5.6249 -5.6250 -0.000049 -0.000055 0.000017 0.2069 -0.0007 -0.0064
108 1 -9.3750 5.6249 -1.8751 -0.000047 -0.000090 -0.000075 0.1986 0.0079 0.0039
109 1 -9.3751 5.6250 1.8750 -0.000120 -0.000031 -0.000049 0.2056 0.0044 -0.0025
110 1 -9.3751 5.6249 5.6249 -0.000116 -0.000051 -0.000064 0.2125 -0.0041 0.0030
111 1 -9.3750 5.6250 9.3750 0.000029 -0.000028 0.000027 0.1940 0.0068 -0.0063
112 1 -9.3750 5.6250 13.1250 0.000004 -0.000008 -0.000047 0.1995 -0.0053 0.0024
113 1 -9.3749 9.3750 -13.1250 0.000058 -0.000014 -0.000034 0.1969 -0.0083 0.0060
114 1 -9.3751 9.3749 -9.3750 -0.000076 -0.000055 -0.000043 0.2050 0.0114 0.0049
115 1 -9.3749 9.3750 -5.6249 0.000074 -0.000043 0.000086 0.1955 -0.0048 -0.0093
116 1 -9.3750 9.3751 -1.8751 0.000003 0.000095 -0.000071 0.1928 -0.0107 0.0078
117 1 -9.3751 9.3751 1.8750 -0.000130 0.000095 0.000008 0.2100 -0.0072 -0.0017
118 1 -9.3750 9.3749 5.6250 -0.000014 -0.000067 0.000035 0.2036 0.0068 0.0024
119 1 -9.3750 9.3751 9.3751 0.000006 0.000105 0.000109 0.1937 0.0003 -0.0001
120 1 -9.3752 9.3749 13.1251 -0.000169 -0.000073 0.000143 0.2066 0.0023 -0.0055
121 1 -9.3750 13.1248 -13.1249 -0.000034 -0.000179 0.000055 0.2098 0.0070 -0.0068
122 1 -9.3750 13.1251 -9.3750 -0.000032 0.000053 0.000031 0.2066 -0.0057 -0.0025
123 1 -9.3751 13.1249 -5.6251 -0.000141 -0.000135 -0.000067 0.2125 0.0105 0.0083
124 1 -9.3751 13.1250 -1.8749 -0.000102 -0.000037 0.000069 0.2047 0.0027 -0.0065
125 1 -9.3750 13.1250 1.8750 0.000034 0.000001 0.000003 0.1938 0.0110 -0.0047
126 1 -9.3751 13.1251 5.6248 -0.000080 0.000142 -0.000183 0.2086 -0.0106 0.0096
127 1 -9.3750 13.1252 9.3749 0.000016 0.000212 -0.000066 0.1985 -0.0153 -0.0067
128 1 -9.3749 13.1250 13.1249 0.000101 -0.000049 -0.000119 0.1959 -0.0011 0.0074
129 1 -5.6250 -13.1250 -13.1251 -0.000025 -0.000024 -0.000150 0.0019 0.0006 0.0014
130 1 -5.6251 -13.1250 -9.3751 -0.000130 0.000020 -0.000119 0.0049 -0.0012 0.0055
131 1 -5.6251 -13.1250 -5.6249 -0.000127 0.000016 0.000092 0.0061 -0.0033 -0.0153
132 1 -5.6251 -13.1250 -1.8751 -0.000128 0.000023 -0.000139 0.0050 0.0003 0.0094
133 1 -5.6250 -13.1249 1.8749 0.000023 0.000057 -0.000076 0.0033 -0.0019 0.0025
134 1 -5.6251 -13.1249 5.6251 -0.000053 0.000052 0.000063 0.0007 0.0009 -0.0081
135 1 -5.6248 -13.1251 9.3750 0.000169 -0.000149 -0.000047 -0.0133 0.0077 0.0020
136 1 -5.6252 -13.1250 13.1249 -0.000163 -0.000022 -0.000096 0.0047 0.0075 -0.0013
137 1 -5.6250 -9.3750 -13.1249 0.000021 0.000011 0.000066 -0.0026 0.0006 0.0010
138 1 -5.6251 -9.3749 -9.3749 -0.000073 0.000064 0.000059 0.0022 0.0035 -0.0046
139 1 -5.6250 -9.3751 -5.6251 0.000047 -0.000056 -0.000088 -0.0023 0.0049 0.0113
140 1 -5.6250 -9.3750 -1.8749 -0.000019 0.000047 0.000097 0.0013 -0.0007 -0.0137
141 1 -5.6251 -9.3750 1.8749 -0.000076 0.000041 -0.000115 0.0077 -0.0007 0.0083
142 1 -5.6250 -9.3749 5.6249 -0.000040 0.000142 -0.000078 0.0003 -0.0106 0.0022
143 1 -5.6248 -9.3750 9.3750 0.000168 0.000023 0.000033 -0.0085 -0.0012 -0.0016
144 1 -5.6250 -9.3750 13.1251 -0.000028 0.000004 0.000080 0.0012 -0.0032 -0.0015
145 1 -5.6251 -5.6249 -13.1250 -0.000079 0.000061 0.000040 0.0106 -0.0014 -0.0018
146 1 -5.6249 -5.6248 -9.3750 0.000101 0.000191 0.000040 -0.0025 -0.0160 -0.0018
147 1 -5.6252 -5.6250 -5.6250 -0.000173 0.000022 -0.000013 0.0090 -0.0001 0.0040
148 1 -5.6249 -5.6250 -1.8750 0.000102 0.000040 0.000045 -0.0097 -0.0012 -0.0001
149 1 -5.6248 -5.6250 1.8751 0.000156 0.000019 0.000076 -0.0000 -0.0002 -0.0040
150 1 -5.6248 -5.6251 5.6250 0.000180 -0.000090 -0.000037 -0.0150 0.0089 0.0071
151 1 -5.6250 -5.6248 9.3750 0.000001 0.000171 0.000042 -0.0056 -0.0150 -0.0051
152 1 -5.6249 -5.6251 13.1250 0.000090 -0.000066 -0.000015 -0.0103 -0.0003 0.0040
153 1 -5.6249 -1.8749 -13.1249 0.000070 0.000061 0.000052 -0.0115 -0.0001 -0.0095
154 1 -5.6249 -1.8752 -9.3750 0.000093 -0.000152 0.000044 -0.0095 0.0211 -0.0039
155 1 -5.6250 -1.8749 -5.6251 -0.000046 0.000084 -0.000084 0.0037 -0.0018 0.0028
156 1 -5.6249 -1.8750 -1.8751 0.000100 -0.000014 -0.000106 -0.0118 0.0049 0.0023
157 1 -5.6250 -1.8750 1.8750 0.000005 0.000000 -0.000037 -0.0025 -0.0012 -0.0006
158 1 -5.6250 -1.8751 5.6250 0.000035 -0.000056 0.000017 -0.0036 -0.0003 -0.0049
159 1 -5.6251 -1.8751 9.3749 -0.000112 -0.000141 -0.000062 0.0114 0.0216 -0.0036
160 1 -5.6250 -1.8751 13.1248 -0.000025 -0.000127 -0.000208 0.0026 0.0030 0.0127
161 1 -5.6249 1.8750 -13.1251 0.000057 0.000033 -0.000067 -0.0018 -0.0020 -0.0014
162 1 -5.6250 1.8751 -9.3751 0.000023 0.000123 -0.000136 -0.0098 -0.0129 0.0086
163 1 -5.6249 1.8751 -5.6249 0.000084 0.000065 0.000072 -0.0043 -0.0059 -0.0092
164 1 -5.6250 1.8751 -1.8750 -0.000033 0.000069 0.000004 0.0012 -0.0047 -0.0001
165 1 -5.6249 1.8749 1.8749 0.000063 -0.000058 -0.000076 0.0030 0.0058 0.0045
166 1 -5.6250 1.8750 5.6250 0.000024 -0.000042 -0.000008 0.0020 0.0047 -0.0005
167 1 -5.6250 1.8752 9.3750 0.000040 0.000157 0.000044 -0.0044 -0.0167 -0.0036
168 1 -5.6252 1.8749 13.1250 -0.000190 -0.000078 -0.000015 0.0094 0.0038 0.0004
169 1 -5.6251 5.6249 -13.1251 -0.000070 -0.000062 -0.000083 0.0083 0.0055 0.0090
170 1 -5.6250 5.6250 -9.3750 0.000014 0.000024 0.000021 0.0047 0.0024 -0.0042
171 1 -5.6250 5.6249 -5.6250 0.000026 -0.000122 -0.000004 0.0000 0.0168 0.0001
172 1 -5.6251 5.6250 -1.8750 -0.000075 0.000003 -0.000024 0.0063 0.0052 0.0023
173 1 -5.6251 5.6251 1.8750 -0.000084 0.000054 0.000024 0.0020 -0.0091 -0.0033
174 1 -5.6248 5.6251 5.6250 0.000195 0.000112 -0.000030 -0.0195 -0.0047 0.0087
175 1 -5.6251 5.6250 9.3751 -0.000076 -0.000037 0.000135 0.0047 0.0095 -0.0071
176 1 -5.6250 5.6251 13.1251 0.000027 0.000095 0.000069 -0.0016 -0.0112 -0.0023
177 1 -5.6251 9.3750 -13.1249 -0.000052 0.000015 0.000071 0.0078 -0.0050 -0.0061
178 1 -5.6249 9.3750 -9.3750 0.000120 -0.000020 0.000045 -0.0113 0.0001 0.0011
179 1 -5.6250 9.3752 -5.6250 -0.000043 0.000168 0.000032 0.0040 -0.0152 -0.0018
180 1 -5.6252 9.3751 -1.8750 -0.000172 0.000070 -0.000036 0.0119 -0.0052 0.0052
181 1 -5.6250 9.3749 1.8750 0.000017 -0.000085 0.000037 -0.0049 0.0075 -0.0094
182 1 -5.6249 9.3751 5.6248 0.000096 0.000114 -0.000161 -0.0099 -0.0046 0.0125
183 1 -5.6250 9.3750 9.3750 -0.000048 0.000046 0.000016 0.0050 -0.0075 -0.0107
184 1 -5.6250 9.3749 13.1249 0.000008 -0.000055 -0.000089 -0.0072 0.0122 0.0088
185 1 -5.6249 13.1250 -13.1249 0.000086 -0.000048 0.000059 -0.0032 0.0029 -0.0007
186 1 -5.6249 13.1249 -9.3749 0.000069 -0.000055 0.000121 -0.0041 0.0031 -0.0093
187 1 -5.6250 13.1250 -5.6251 -0.000016 0.000004 -0.000096 0.0023 0.0068 0.0074
188 1 -5.6251 13.1250 -1.8751 -0.000097 -0.000010 -0.000085 0.0053 0.0042 0.0015
189 1 -5.6251 13.1250 1.8750 -0.000081 0.000024 -0.000018 0.0112 -0.0026 -0.0025
190 1 -5.6250 13.1250 5.6250 0.000037 -0.000043 -0.000014 -0.0001 0.0091 -0.0027
191 1 -5.6250 13.1249 9.3749 0.000016 -0.000079 -0.000095 0.0010 0.0006 0.0046
192 1 -5.6250 13.1251 13.1250 -0.000026 0.000143 -0.000035 0.0051 -0.0117 0.0015
193 1 -1.8750 -13.1251 -13.1249 -0.000009 -0.000059 0.000060 -0.0458 0.0364 -0.0010
194 1 -1.8751 -13.1249 -9.3751 -0.000109 0.000099 -0.000086 -0.0447 0.0283 0.0088
195 1 -1.8750 -13.1249 -5.6250 -0.000018 0.000070 0.000031 -0.0564 0.0232 0.0012
196 1 -1.8751 -13.1251 -1.8748 -0.000135 -0.000055 0.000203 -0.0432 0.0266 -0.0166
197 1 -1.8750 -13.1249 1.8749 0.000031 0.000053 -0.000125 -0.0454 0.0216 0.0088
198 1 -1.8751 -13.1252 5.6248 -0.000061 -0.000233 -0.000184 -0.0464 0.0330 0.0079
199 1 -1.8751 -13.1250 9.3750 -0.000065 -0.000008 0.000008 -0.0350 0.0328 -0.0013
200 1 -1.8750 -13.1251 13.1252 -0.000048 -0.000080 0.000155 -0.0496 0.0294 -0.0076
201 1 -1.8750 -9.3749 -13.1251 0.000001 0.000130 -0.000114 0.0029 -0.0087 0.0138
202 1 -1.8750 -9.3749 -9.3750 0.000040 0.000097 0.000044 -0.0086 -0.0064 0.0001
203 1 -1.8749 -9.3749 -5.6248 0.000060 0.000093 0.000191 -0.0012 -0.0096 -0.0094
204 1 -1.8751 -9.3749 -1.8750 -0.000074 0.000050 0.000041 0.0026 -0.0111 0.0045
205 1 -1.8749 -9.3749 1.8750 0.000084 0.000073 0.000014 -0.0040 0.0043 -0.0018
206 1 -1.8751 -9.3750 5.6249 -0.000103 -0.000000 -0.000078 0.0052 -0.0082 0.0007
207 1 -1.8751 -9.3749 9.3748 -0.000079 0.000123 -0.000157 0.0081 -0.0110 0.0122
208 1 -1.8751 -9.3751 13.1251 -0.000086 -0.000061 0.000139 0.0118 -0.0036 -0.0200
209 1 -1.8749 -5.6250 -13.1250 0.000124 0.000046 -0.000003 -0.0118 0.0036 0.0013
210 1 -1.8750 -5.6251 -9.3750 -0.000035 -0.000087 -0.000009 0.0033 0.0098 0.0040
211 1 -1.8752 -5.6252 -5.6249 -0.000177 -0.000165 0.000109 0.0069 0.0142 -0.0126
212 1 -1.8750 -5.6251 -1.8751 0.000024 -0.000148 -0.000126 0.0063 0.0134 0.0072
213 1 -1.8748 -5.6248 1.8749 0.000167 0.000196 -0.000139 -0.0102 -0.0110 0.0012
214 1 -1.8750 -5.6250 5.6249 0.000030 0.000033 -0.000090 0.0063 -0.0102 0.0091
215 1 -1.8752 -5.6251 9.3752 -0.000200 -0.000079 0.000226 0.0137 0.0069 -0.0173
216 1 -1.8752 -5.6251 13.1250 -0.000169 -0.000112 0.000027 0.0146 0.0051 0.0060
217 1 -1.8751 -1.8750 -13.1250 -0.000083 0.000039 0.000008 0.0085 -0.0026 0.0019
218 1 -1.8750 -1.8750 -9.3750 -0.000014 0.000020 0.000030 0.0019 -0.0042 -0.0003
219 1 -1.8749 -1.8750 -5.6250 0.000131 -0.000009 0.000047 -0.0093 -0.0045 -0.0012
220 1 -1.8750 -1.8749 -1.8750 0.000031 0.000056 0.000023 0.0001 -0.0109 0.0010
221 1 -1.8751 -1.8750 1.8750 -0.000050 -0.000034 -0.000002 0.0011 0.0088 0.0013
222 1 -1.8750 -1.8752 5.6250 0.000025 -0.000217 0.000007 -0.0005 0.0186 0.0051
223 1 -1.8749 -1.8751 9.3751 0.000081 -0.000071 0.000145 -0.0145 0.0028 -0.0072
224 1 -1.8750 -1.8750 13.1251 -0.000006 -0.000005 0.000050 -0.0030 -0.0046 0.0033
225 1 -1.8749 1.8750 -13.1249 0.000084 -0.000041 0.000113 -0.0148 0.0022 -0.0027
226 1 -1.8751 1.8750 -9.3749 -0.000105 -0.000003 0.000091 0.0066 -0.0018 -0.0002
227 1 -1.8751 1.8750 -5.6250 -0.000060 0.000031 0.000026 -0.0077 -0.0139 -0.0028
228 1 -1.8751 1.8749 -1.8750 -0.000130 -0.000052 0.000046 -0.0313 -0.0148 -0.0041
229 1 -1.8749 1.8750 1.8751 0.000121 -0.000029 0.000115 -0.0511 -0.0224 -0.0089
230 1 -1.8750 1.8751 5.6249 -0.000014 0.000071 -0.000092 -0.0474 -0.0332 0.0090
231 1 -1.8751 1.8750 9.3750 -0.000107 0.000016 -0.000033 -0.0391 -0.0288 -0.0064
232 1 -1.8751 1.8750 13.1249 -0.000090 -0.000020 -0.000134 -0.0373 -0.0131 0.0174
233 1 -1.8749 5.6251 -13.1251 0.000084 0.000109 -0.000125 -0.0823 -0.0321 0.0198
234 1 -1.8748 5.6249 -9.3750 0.000211 -0.000060 -0.000019 -0.0592 -0.0209 -0.0049
235 1 -1.8749 5.6248 -5.6250 0.000098 -0.000152 -0.000044 -0.0747 -0.0103 -0.0060
236 1 -1.8749 5.6249 -1.8749 0.000074 -0.000063 0.000110 -0.1344 -0.0190 -0.0208
237 1 -1.8750 5.6250 1.8750 0.000035 0.000022 0.000007 -0.1587 -0.0206 -0.0016
238 1 -1.8751 5.6251 5.6249 -0.000078 0.000075 -0.000138 -0.1414 -0.0267 0.0048
239 1 -1.8750 5.6250 9.3749 -0.000027 -0.000025 -0.000112 -0.1548 -0.0251 0.0022
240 1 -1.8750 5.6251 13.1250 -0.000018 0.000091 0.000013 -0.1205 -0.0282 0.0026
241 1 -1.8749 9.3750 -13.1250 0.000071 0.000007 -0.000001 -0.1572 -0.0104 -0.0067
242 1 -1.8750 9.3750 -9.3752 -0.000016 -0.000023 -0.000200 -0.1461 -0.0169 0.0143
243 1 -1.8750 9.3751 -5.6250 -0.000039 0.000061 0.000043 -0.1638 -0.0273 -0.0159
244 1 -1.8750 9.3751 -1.8750 0.000009 0.000064 0.000009 -0.1933 -0.0149 -0.0096
245 1 -1.8750 9.3752 1.8749 0.000011 0.000156 -0.000133 -0.1974 -0.0106 0.0080
246 1 -1.8751 9.3750 5.6250 -0.000079 -0.000017 -0.000028 -0.1882 -0.0020 -0.0022
247 1 -1.8750 9.3749 9.3750 0.000040 -0.000087 0.000017 -0.2087 0.0076 -0.0073
248 1 -1.8750 9.3751 13.1249 -0.000014 0.000062 -0.000133 -0.1840 -0.0033 0.0148
249 1 -1.8749 13.1251 -13.1249 0.000096 0.000108 0.000059 -0.1536 0.0143 -0.0036
250 1 -1.8750 13.1252 -9.3750 0.000048 0.000201 0.000025 -0.1519 0.0134 0.0031
251 1 -1.8748 13.1250 -5.6249 0.000164 0.000015 0.000064 -0.1606 0.0274 -0.0036
252 1 -1.8749 13.1249 -1.8750 0.000056 -0.000060 -0.000016 -0.1612 0.0280 0.0048
253 1 -1.8749 13.1250 1.8750 0.000125 -0.000048 0.000050 -0.1625 0.0353 -0.0021
254 1 -1.8749 13.1249 5.6250 0.000139 -0.000143 0.000028 -0.1600 0.0235 0.0031
255 1 -1.8750 13.1251 9.3751 0.000048 0.000082 0.000071 -0.1526 0.0150 -0.0039
256 1 -1.8750 13.1251 13.1250 -0.000011 0.000079 -0.000016 -0.1471 0.0173 0.0059
257 1 1.8750 -13.1250 -13.1250 0.000044 -0.000033 0.000003 -0.7758 0.5968 0.0056
258 1 1.8750 -13.1251 -9.3749 0.000008 -0.000092 0.000102 -0.7833 0.6011 -0.0005
259 1 1.8749 -13.1250 -5.6248 -0.000151 -0.000029 0.000167 -0.7665 0.5931 -0.0048
260 1 1.8750 -13.1250 -1.8749 -0.000001 0.000036 0.000061 -0.7782 0.5917 0.0028
261 1 1.8751 -13.1249 1.8750 0.000080 0.000062 0.000030 -0.7753 0.5883 -0.0035
262 1 1.8750 -13.1249 5.6249 -0.000030 0.000117 -0.000106 -0.7675 0.5909 0.0095
263 1 1.8750 -13.1250 9.3750 0.000043 -0.000047 0.000026 -0.7791 0.6022 -0.0028
264 1 1.8750 -13.1249 13.1251 0.000012 0.000079 0.000064 -0.7799 0.5926 -0.0040
265 1 1.8751 -9.3751 -13.1250 0.000061 -0.000138 0.000036 -0.2256 0.0543 0.0056
266 1 1.8749 -9.3750 -9.3750 -0.000096 0.000030 0.000039 -0.2121 0.0452 -0.0005
267 1 1.8750 -9.3750 -5.6250 0.000008 0.000007 0.000030 -0.2162 0.0440 -0.0009
268 1 1.8750 -9.3750 -1.8750 -0.000040 -0.000018 0.000005 -0.2225 0.0476 0.0041
269 1 1.8751 -9.3749 1.8751 0.000115 0.000050 0.000091 -0.2293 0.0459 -0.0078
270 1 1.8750 -9.3749 5.6249 -0.000002 0.000063 -0.000061 -0.2234 0.0465 0.0025
271 1 1.8749 -9.3750 9.3749 -0.000109 0.000038 -0.000136 -0.2179 0.0432 0.0134
272 1 1.8752 -9.3750 13.1252 0.000182 0.000019 0.000168 -0.2393 0.0494 -0.0147
273 1 1.8750 -5.6250 -13.1252 -0.000037 -0.000004 -0.000151 -0.1912 -0.0045 0.0152
274 1 1.8749 -5.6249 -9.3749 -0.000077 0.000084 0.000109 -0.2010 -0.0079 -0.0129
275 1 1.8751 -5.6250 -5.6250 0.000056 -0.000041 -0.000006 -0.2104 0.0017 -0.0003
276 1 1.8751 -5.6250 -1.8751 0.000105 -0.000050 -0.000114 -0.2044 0.0010 0.0026
277 1 1.8749 -5.6250 1.8749 -0.000131 -0.000008 -0.000137 -0.1893 -0.0004 0.0065
278 1 1.8750 -5.6250 5.6250 0.000036 -0.000016 0.000050 -0.1993 -0.0040 -0.0060
279 1 1.8750 -5.6250 9.3751 0.000015 0.000025 0.000057 -0.2091 0.0031 -0.0005
280 1 1.8750 -5.6250 13.1250 -0.000001 -0.000002 0.000040 -0.2040 0.0034 -0.0062
281 1 1.8750 -1.8750 -13.1248 0.000022 0.000025 0.000171 -0.2116 -0.0135 -0.0117
282 1 1.8749 -1.8751 -9.3750 -0.000068 -0.000110 -0.000010 -0.1938 0.0152 0.0082
283 1 1.8750 -1.8750 -5.6250 0.000012 -0.000035 0.000037 -0.1993 -0.0090 -0.0162
284 1 1.8750 -1.8751 -1.8752 -0.000045 -0.000055 -0.000194 -0.2103 -0.0365 0.0106
285 1 1.8750 -1.8751 1.8751 -0.000042 -0.000063 0.000068 -0.2198 -0.0380 -0.0124
286 1 1.8750 -1.8752 5.6250 -0.000004 -0.000190 -0.000025 -0.2259 -0.0345 0.0003
287 1 1.8748 -1.8749 9.3749 -0.000153 0.000079 -0.000090 -0.2093 -0.0496 -0.0020
288 1 1.8749 -1.8749 13.1248 -0.000082 0.000059 -0.000171 -0.2126 -0.0424 0.0201
289 1 1.8750 1.8750 -13.1249 -0.000008 0.000005 0.000093 -0.3146 -0.1372 0.0873
290 1 1.8750 1.8751 -9.3751 -0.000018 0.000134 -0.000093 -0.2387 -0.0724 0.0127
291 1 1.8749 1.8750 -5.6249 -0.000081 0.000038 0.000098 -0.3109 -0.1436 -0.1057
292 1 1.8749 1.8749 -1.8749 -0.000067 -0.000065 0.000081 -0.6749 -0.5018 -0.1044
293 1 1.8750 1.8751 1.8749 0.000037 0.000136 -0.000103 -0.7658 -0.5996 0.0023
294 1 1.8749 1.8750 5.6251 -0.000053 0.000022 0.000128 -0.7751 -0.6083 -0.0115
295 1 1.8750 1.8750 9.3750 -0.000015 0.000033 0.000027 -0.7685 -0.5857 0.0128
296 1 1.8750 1.8749 13.1250 -0.000014 -0.000066 -0.000044 -0.6770 -0.4964 0.1067
297 1 1.8749 5.6251 -13.1249 -0.000061 0.000068 0.000108 -1.1389 -0.6020 0.3781
298 1 1.8750 5.6250 -9.3750 0.000034 -0.000007 -0.000018 -0.7873 -0.5916 0.0046
299 1 1.8751 5.6250 -5.6250 0.000064 0.000024 -0.000018 -1.1490 -0.5920 -0.3810
300 1 1.8751 5.6249 -1.8749 0.000083 -0.000053 0.000106 6.0007 -0.5966 -0.3895
301 1 1.8750 5.6250 1.8751 0.000023 0.000022 0.000096 5.6395 -0.5998 -0.0168
302 1 1.8750 5.6249 5.6253 -0.000002 -0.000114 0.000257 5.6242 -0.5840 -0.0116
303 1 1.8750 5.6251 9.3751 -0.000005 0.000069 0.000063 5.6382 -0.5995 0.0299
304 1 1.8752 5.6250 13.1250 0.000193 -0.000022 0.000017 5.9943 -0.5999 0.3903
305 1 1.8754 9.3749 -13.1249 0.000408 -0.000067 0.000091 5.5482 -0.4433 0.0995
306 1 1.8751 9.3750 -9.3750 0.000078 -0.000044 0.000030 5.6355 -0.5348 0.0041
307 1 1.8750 9.3751 -5.6249 0.000035 0.000077 0.000068 5.5546 -0.4623 -0.1073
308 1 1.8751 9.3749 -1.8751 0.000088 -0.000071 -0.000131 5.1937 -0.0908 -0.0899
309 1 1.8751 9.3748 1.8750 0.000110 -0.000226 -0.000046 5.1055 0.0053 -0.0096
310 1 1.8751 9.3751 5.6251 0.000127 0.000083 0.000103 5.0964 -0.0080 -0.0062
311 1 1.8749 9.3750 9.3751 -0.000087 -0.000035 0.000081 5.1123 0.0025 0.0155
312 1 1.8751 9.3749 13.1251 0.000124 -0.000091 0.000148 5.1910 -0.0865 0.0958
313 1 1.8751 13.1251 -13.1250 0.000097 0.000116 -0.000033 5.6446 0.5479 0.0108
314 1 1.8751 13.1250 -9.3749 0.000075 -0.000032 0.000067 5.6500 0.5445 -0.0082
315 1 1.8751 13.1249 -5.6251 0.000126 -0.000097 -0.000056 5.6476 0.5678 0.0039
316 1 1.8750 13.1250 -1.8749 0.000003 -0.000016 0.000111 5.6344 0.5838 -0.0160
317 1 1.8751 13.1249 1.8750 0.000081 -0.000125 -0.000017 5.6290 0.5976 0.0069
318 1 1.8750 13.1250 5.6250 0.000045 0.000031 0.000047 5.6304 0.6009 -0.0073
319 1 1.8751 13.1251 9.3749 0.000113 0.000088 -0.000094 5.6254 0.5859 0.0081
320 1 1.8752 13.1250 13.1250 0.000195 0.000043 0.000014 5.6265 0.5798 -0.0002
321 1 5.6250 -13.1251 -13.1250 0.000011 -0.000145 0.000032 5.0574 -6.2857 0.0064
322 1 5.6248 -13.1251 -9.3750 -0.000169 -0.000134 0.000026 5.0613 -6.2901 -0.0013
323 1 5.6249 -13.1248 -5.6250 -0.000077 0.000180 -0.000012 5.0526 -6.2973 -0.0007
324 1 5.6250 -13.1251 -1.8751 -0.000020 -0.000079 -0.000056 5.0563 -6.2858 0.0018
325 1 5.6250 -13.1252 1.8750 0.000049 -0.000192 -0.000043 5.0570 -6.2902 -0.0020
326 1 5.6251 -13.1248 5.6249 0.000155 0.000182 -0.000077 5.0497 -6.2935 0.0034
327 1 5.6250 -13.1250 9.3750 -0.000034 0.000002 -0.000013 5.0583 -6.2852 0.0063
328 1 5.6249 -13.1251 13.1252 -0.000105 -0.000084 0.000210 5.0594 -6.2932 -0.0137
329 1 5.6251 -9.3749 -13.1249 0.000093 0.000076 0.000064 5.0548 0.0987 -0.0087
330 1 5.6251 -9.3750 -9.3750 0.000137 -0.000022 -0.000041 5.0484 0.1005 0.0050
331 1 5.6252 -9.3750 -5.6250 0.000177 0.000033 -0.000003 5.0507 0.1150 -0.0003
332 1 5.6251 -9.3749 -1.8750 0.000084 0.000141 0.000030 5.0514 0.0907 -0.0021
333 1 5.6250 -9.3751 1.8750 -0.000006 -0.000063 0.000006 5.0598 0.1042 -0.0009
334 1 5.6251 -9.3749 5.6250 0.000138 0.000143 -0.000038 5.0511 0.1089 -0.0053
335 1 5.6251 -9.3748 9.3748 0.000083 0.000231 -0.000224 5.0492 0.0909 0.0110
336 1 5.6250 -9.3751 13.1249 0.000014 -0.000061 -0.000077 5.0619 0.1048 -0.0015
337 1 5.6251 -5.6249 -13.1251 0.000083 0.000059 -0.000125 5.0519 0.0041 0.0086
338 1 5.6249 -5.6251 -9.3750 -0.000098 -0.000061 -0.000029 5.0552 0.0002 0.0008
339 1 5.6250 -5.6249 -5.6249 0.000033 0.000112 0.000094 5.0564 -0.0117 -0.0041
340 1 5.6251 -5.6251 -1.8749 0.000069 -0.000099 0.000088 5.0573 0.0154 0.0005
341 1 5.6249 -5.6250 1.8751 -0.000063 0.000033 0.000079 5.0522 -0.0050 -0.0026
342 1 5.6251 -5.6249 5.6250 0.000074 0.000149 -0.000013 5.0550 -0.0041 0.0034
343 1 5.6250 -5.6250 9.3750 0.000000 -0.000003 -0.000008 5.0558 0.0056 0.0012
344 1 5.6251 -5.6251 13.1250 0.000098 -0.000059 0.000026 5.0527 0.0041 -0.0063
345 1 5.6250 -1.8749 -13.1251 -0.000009 0.000137 -0.000083 5.0566 -0.0350 0.0104
346 1 5.6251 -1.8751 -9.3750 0.000093 -0.000067 0.000003 5.0506 0.0115 -0.0008
347 1 5.6251 -1.8752 -5.6249 0.000090 -0.000156 0.000070 5.0529 -0.0092 -0.0157
348 1 5.6251 -1.8749 -1.8750 0.000130 0.000099 0.000020 5.0496 -0.0919 -0.0036
349 1 5.6251 -1.8750 1.8752 0.000110 -0.000005 0.000193 5.0513 -0.0992 -0.0094
350 1 5.6249 -1.8750 5.6251 -0.000073 0.000017 0.000077 5.0576 -0.1014 0.0037
351 1 5.6250 -1.8751 9.3750 0.000061 -0.000080 0.000043 5.0484 -0.1041 -0.0074
352 1 5.6250 -1.8749 13.1248 0.000029 0.000070 -0.000193 5.0515 -0.0868 0.0237
353 1 5.6250 1.8749 -13.1250 -0.000008 -0.000106 -0.000009 5.0554 -0.4659 0.3913
354 1 5.6250 1.8752 -9.3749 0.000014 0.000244 0.000076 5.0542 -0.1461 -0.0113
355 1 5.6251 1.8750 -5.6252 0.000117 0.000006 -0.000158 5.0492 -0.4847 -0.3708
356 1 5.6251 1.8750 -1.8750 0.000136 0.000019 0.000030 5.0488 6.6697 -0.3950
357 1 5.6250 1.8751 1.8750 -0.000034 0.000161 -0.000045 5.0581 6.3001 -0.0195
358 1 5.6248 1.8750 5.6250 -0.000143 0.000012 0.000014 5.0585 6.2935 0.0032
359 1 5.6250 1.8749 9.3752 0.000024 -0.000063 0.000172 5.0544 6.3041 0.0153
360 1 5.6251 1.8751 13.1251 0.000132 0.000076 0.000074 5.0512 6.6674 0.3867
361 1 5.6250 5.6250 -13.1249 0.000035 0.000064 0.000051 5.0522 6.2873 -7.0896
362 1 5.6251 5.6251 -9.3750 0.000102 0.000089 0.000006 5.0539 6.2996 -0.0027
363 1 5.6249 5.6250 -5.6251 -0.000064 0.000050 -0.000109 5.0599 6.2918 7.0921
ITEM: TIMESTEP
100
ITEM: NUMBER OF ATOMS
363
ITEM: BOX BOUNDS pp pp pp
-15.000000 15.000000
-15.000000 15.000000
-15.000000 15.000000
ITEM: ATOMS id type xu yu zu vx vy vz fx fy fz
1 1 -13.2727 -13.1337 -13.1172 -0.002765 -0.000054 0.000014 -1.5958 0.0969 -0.1272
2 1 -13.2791 -13.1268 -9.3711 -0.002815 0.000064 0.000154 -1.5617 0.1307 0.2335
3 1 -13.2849 -13.1225 -5.6196 -0.002897 0.000039 0.000054 -1.6105 0.0569 -0.0728
4 1 -13.2714 -13.1315 -1.8707 -0.002734 -0.000100 -0.000095 -1.5771 -0.1327 -0.2558
5 1 -13.2755 -13.1192 1.8711 -0.002742 0.000064 0.000116 -1.4413 0.0082 0.2585
6 1 -13.2800 -13.1254 5.6211 -0.002833 0.000063 -0.000086 -1.5908 0.3417 0.1258