ITEM: TIMESTEP
0
ITEM: NUMBER OF ATOMS
363
ITEM: BOX BOUNDS pp pp pp
-15.000000 15.000000
-15.000000 15.000000
-15.000000 15.000000
ITEM: ATOMS id type xu yu zu vx vy vz fx fy fz
1 1 -13.1250 -13.1250 -13.1250 0.000015 0.000036 0.000026 -5.0547 0.0031 0.0007
2 1 -13.1251 -13.1249 -9.3750 -0.000078 0.000066 0.000015 -5.0542 -0.0052 -0.0046
3 1 -13.1251 -13.1250 -5.6251 -0.000089 0.000041 -0.000132 -5.0559 -0.0025 0.0067
4 1 -13.1250 -13.1251 -1.8751 -0.000035 -0.000076 -0.000082 -5.0554 0.0097 -0.0022
5 1 -13.1250 -13.1251 1.8749 0.000031 -0.000074 -0.000073 -5.0512 -0.0010 -0.0017
6 1 -13.1250 -13.1252 5.6249 0.000001 -0.000168 -0.000088 -5.0568 0.0080 -0.0019
7 1 -13.1250 -13.1251 9.3749 -0.000015 -0.000059 -0.000130 -5.0565 -0.0006 0.0068
8 1 -13.1251 -13.1250 13.1250 -0.000134 -0.000034 0.000034 -5.0524 0.0040 -0.0058
9 1 -13.1251 -9.3748 -13.1251 -0.000164 0.000175 -0.000065 -5.0495 -0.0108 0.0026
10 1 -13.1252 -9.3751 -9.3750 -0.000183 -0.000103 -0.000047 -5.0474 0.0109 -0.0021
11 1 -13.1249 -9.3751 -5.6251 0.000072 -0.000125 -0.000081 -5.0603 0.0110 0.0023
12 1 -13.1248 -9.3749 -1.8750 0.000143 0.000051 -0.000041 -5.0614 -0.0073 0.0007
13 1 -13.1249 -9.3750 1.8750 0.000048 0.000016 0.000018 -5.0590 -0.0074 -0.0017
14 1 -13.1250 -9.3750 5.6250 -0.000013 -0.000014 0.000025 -5.0607 -0.0008 0.0060
15 1 -13.1251 -9.3750 9.3752 -0.000128 0.000039 0.000177 -5.0557 -0.0007 -0.0106
16 1 -13.1249 -9.3751 13.1250 0.000069 -0.000100 0.000004 -5.0584 0.0082 0.0040
17 1 -13.1248 -5.6250 -13.1249 0.000178 -0.000023 0.000102 -5.0588 0.0103 -0.0069
18 1 -13.1251 -5.6250 -9.3751 -0.000069 0.000049 -0.000086 -5.0558 -0.0110 0.0056
19 1 -13.1249 -5.6250 -5.6251 0.000122 0.000024 -0.000101 -5.0594 -0.0069 0.0022
20 1 -13.1251 -5.6250 -1.8750 -0.000137 -0.000033 -0.000043 -5.0534 -0.0005 -0.0021
21 1 -13.1250 -5.6251 1.8750 0.000028 -0.000101 -0.000031 -5.0553 0.0068 -0.0052
22 1 -13.1250 -5.6249 5.6248 -0.000023 0.000129 -0.000156 -5.0558 -0.0132 0.0111
23 1 -13.1250 -5.6249 9.3750 0.000012 0.000112 0.000044 -5.0532 -0.0079 -0.0058
24 1 -13.1250 -5.6249 13.1251 0.000013 0.000087 0.000090 -5.0556 -0.0069 -0.0011
25 1 -13.1250 -1.8749 -13.1250 -0.000003 0.000063 0.000030 -5.0597 -0.0094 0.0057
26 1 -13.1251 -1.8751 -9.3749 -0.000112 -0.000110 0.000109 -5.0490 0.0091 -0.0081
27 1 -13.1250 -1.8750 -5.6250 0.000007 -0.000019 -0.000048 -5.0600 0.0029 0.0112
28 1 -13.1251 -1.8751 -1.8749 -0.000110 -0.000127 0.000102 -5.0529 0.0054 -0.0093
29 1 -13.1251 -1.8750 1.8750 -0.000143 -0.000007 -0.000010 -5.0491 -0.0055 0.0047
30 1 -13.1250 -1.8751 5.6250 0.000031 -0.000112 0.000011 -5.0643 0.0184 -0.0030
31 1 -13.1251 -1.8750 9.3749 -0.000127 -0.000036 -0.000058 -5.0483 0.0026 0.0080
32 1 -13.1250 -1.8749 13.1251 -0.000044 0.000087 0.000104 -5.0543 -0.0045 -0.0086
33 1 -13.1251 1.8749 -13.1250 -0.000085 -0.000130 -0.000029 -5.0527 0.0131 0.0077
34 1 -13.1251 1.8750 -9.3750 -0.000119 0.000006 0.000022 -5.0491 -0.0022 -0.0005
35 1 -13.1250 1.8750 -5.6249 0.000029 0.000006 0.000066 -5.0556 -0.0014 -0.0008
36 1 -13.1251 1.8750 -1.8749 -0.000079 -0.000048 0.000072 -5.0497 0.0036 0.0027
37 1 -13.1251 1.8749 1.8751 -0.000125 -0.000076 0.000142 -5.0549 0.0056 -0.0035
38 1 -13.1252 1.8752 5.6251 -0.000176 0.000160 0.000092 -5.0522 -0.0128 -0.0018
39 1 -13.1250 1.8749 9.3750 -0.000014 -0.000112 -0.000036 -5.0551 0.0023 0.0111
40 1 -13.1250 1.8749 13.1251 0.000031 -0.000051 0.000135 -5.0532 0.0063 -0.0124
41 1 -13.1250 5.6251 -13.1250 0.000009 0.000053 -0.000026 -5.0620 -0.0076 0.0083
42 1 -13.1250 5.6251 -9.3750 0.000033 0.000057 0.000008 -5.0545 0.0009 0.0005
43 1 -13.1250 5.6250 -5.6249 -0.000004 -0.000009 0.000061 -5.0464 -0.0050 -0.0058
44 1 -13.1250 5.6251 -1.8750 -0.000002 0.000139 -0.000041 -5.0566 -0.0121 0.0031
45 1 -13.1250 5.6250 1.8750 -0.000051 0.000025 -0.000041 -5.0557 -0.0023 -0.0051
46 1 -13.1250 5.6250 5.6248 -0.000045 0.000049 -0.000159 -5.0474 0.0023 0.0049
47 1 -13.1251 5.6249 9.3749 -0.000091 -0.000086 -0.000108 -5.0534 0.0006 0.0080
48 1 -13.1249 5.6250 13.1252 0.000101 -0.000021 0.000181 -5.0540 -0.0019 -0.0174
49 1 -13.1250 9.3750 -13.1248 -0.000004 0.000023 0.000204 -5.0521 -0.0008 -0.0096
50 1 -13.1249 9.3751 -9.3749 0.000045 0.000116 0.000085 -5.0619 -0.0023 0.0048
51 1 -13.1249 9.3749 -5.6249 0.000106 -0.000139 0.000073 -5.0567 0.0136 -0.0020
52 1 -13.1252 9.3750 -1.8750 -0.000242 -0.000030 -0.000002 -5.0448 0.0096 0.0018
53 1 -13.1251 9.3751 1.8750 -0.000152 0.000076 -0.000029 -5.0491 -0.0111 0.0055
54 1 -13.1250 9.3750 5.6251 0.000026 -0.000009 0.000095 -5.0583 -0.0005 -0.0082
55 1 -13.1248 9.3750 9.3750 0.000174 -0.000024 -0.000022 -5.0596 -0.0069 0.0061
56 1 -13.1250 9.3750 13.1250 0.000016 -0.000045 0.000020 -5.0576 0.0078 0.0056
57 1 -13.1252 13.1250 -13.1250 -0.000219 -0.000023 -0.000047 -5.0429 0.0033 -0.0069
58 1 -13.1251 13.1251 -9.3751 -0.000154 0.000088 -0.000074 -5.0537 0.0007 0.0034
59 1 -13.1251 13.1251 -5.6250 -0.000161 0.000128 0.000008 -5.0520 -0.0121 -0.0010
60 1 -13.1250 13.1251 -1.8749 -0.000049 0.000067 0.000060 -5.0508 -0.0086 -0.0011
61 1 -13.1248 13.1248 1.8751 0.000161 -0.000186 0.000061 -5.0614 0.0125 0.0013
62 1 -13.1250 13.1249 5.6251 0.000014 -0.000077 0.000080 -5.0544 -0.0010 -0.0069
63 1 -13.1251 13.1248 9.3749 -0.000085 -0.000161 -0.000100 -5.0555 0.0076 0.0030
64 1 -13.1249 13.1251 13.1248 0.000093 0.000150 -0.000192 -5.0586 -0.0126 0.0076
65 1 -9.3750 -13.1249 -13.1252 0.000012 0.000101 -0.000200 0.1975 -0.0095 0.0157
66 1 -9.3750 -13.1250 -9.3749 -0.000036 0.000036 0.000056 0.2020 -0.0008 -0.0140
67 1 -9.3751 -13.1250 -5.6251 -0.000084 -0.000016 -0.000088 0.2041 -0.0088 0.0036
68 1 -9.3750 -13.1251 -1.8751 -0.000015 -0.000065 -0.000106 0.1998 0.0103 0.0062
69 1 -9.3748 -13.1250 1.8751 0.000157 0.000032 0.000060 0.1952 -0.0010 -0.0049
70 1 -9.3750 -13.1249 5.6251 -0.000029 0.000051 0.000070 0.2046 0.0041 -0.0047
71 1 -9.3751 -13.1248 9.3749 -0.000051 0.000161 -0.000068 0.2045 -0.0090 0.0078
72 1 -9.3750 -13.1249 13.1250 -0.000004 0.000121 0.000010 0.1979 -0.0085 -0.0098
73 1 -9.3750 -9.3750 -13.1250 0.000048 -0.000037 -0.000034 0.1929 0.0044 -0.0033
74 1 -9.3749 -9.3749 -9.3750 0.000070 0.000112 0.000030 0.1870 -0.0087 0.0029
75 1 -9.3751 -9.3751 -5.6248 -0.000066 -0.000107 0.000168 0.2089 0.0062 -0.0100
76 1 -9.3750 -9.3750 -1.8750 -0.000043 0.000033 -0.000005 0.2088 -0.0033 0.0079
77 1 -9.3750 -9.3750 1.8750 -0.000037 -0.000028 0.000030 0.2065 0.0074 -0.0006
78 1 -9.3752 -9.3749 5.6250 -0.000151 0.000076 0.000046 0.2127 -0.0030 -0.0011
79 1 -9.3751 -9.3749 9.3750 -0.000099 0.000072 0.000028 0.2068 0.0016 -0.0070
80 1 -9.3750 -9.3750 13.1248 -0.000039 -0.000014 -0.000180 0.2085 0.0124 0.0114
81 1 -9.3750 -5.6250 -13.1248 0.000043 -0.000028 0.000175 0.2079 -0.0087 -0.0064
82 1 -9.3751 -5.6251 -9.3750 -0.000056 -0.000086 0.000014 0.2100 0.0113 0.0060
83 1 -9.3750 -5.6250 -5.6250 -0.000009 0.000000 0.000016 0.2081 -0.0046 0.0011
84 1 -9.3750 -5.6250 -1.8750 -0.000032 0.000035 0.000032 0.1973 0.0014 -0.0031
85 1 -9.3750 -5.6249 1.8750 0.000017 0.000119 -0.000045 0.2004 -0.0112 -0.0020
86 1 -9.3750 -5.6250 5.6248 -0.000015 0.000004 -0.000160 0.1986 0.0029 0.0111
87 1 -9.3749 -5.6250 9.3751 0.000065 0.000017 0.000058 0.1993 -0.0019 -0.0053
88 1 -9.3750 -5.6248 13.1251 0.000027 0.000186 0.000120 0.2029 -0.0144 0.0013
89 1 -9.3751 -1.8752 -13.1250 -0.000112 -0.000243 -0.000048 0.2070 0.0163 0.0100
90 1 -9.3749 -1.8750 -9.3749 0.000086 0.000047 0.000099 0.1904 -0.0072 -0.0108
91 1 -9.3751 -1.8750 -5.6251 -0.000111 -0.000020 -0.000067 0.2091 0.0002 0.0123
92 1 -9.3750 -1.8749 -1.8749 -0.000025 0.000074 0.000108 0.1936 0.0004 -0.0096
93 1 -9.3749 -1.8751 1.8750 0.000057 -0.000070 0.000006 0.1934 0.0087 -0.0003
94 1 -9.3752 -1.8750 5.6249 -0.000230 0.000016 -0.000107 0.2175 -0.0001 0.0095
95 1 -9.3749 -1.8751 9.3750 0.000107 -0.000071 0.000048 0.1910 0.0139 -0.0031
96 1 -9.3750 -1.8751 13.1251 0.000001 -0.000053 0.000105 0.1973 0.0123 -0.0078
97 1 -9.3750 1.8750 -13.1251 0.000013 0.000047 -0.000065 0.1962 -0.0120 0.0134
98 1 -9.3749 1.8750 -9.3750 0.000081 -0.000048 0.000026 0.1916 0.0025 -0.0076
99 1 -9.3750 1.8750 -5.6251 0.000021 -0.000022 -0.000088 0.2013 0.0062 0.0084
100 1 -9.3749 1.8751 -1.8749 0.000094 0.000100 0.000055 0.1910 -0.0030 -0.0023
101 1 -9.3751 1.8750 1.8751 -0.000097 -0.000005 0.000131 0.2021 0.0005 -0.0114
102 1 -9.3750 1.8750 5.6249 -0.000049 0.000011 -0.000115 0.1960 0.0007 0.0129
103 1 -9.3750 1.8752 9.3750 -0.000008 0.000233 0.000021 0.1995 -0.0152 0.0028
104 1 -9.3749 1.8750 13.1252 0.000092 0.000039 0.000223 0.1965 -0.0084 -0.0164
105 1 -9.3752 5.6250 -13.1250 -0.000157 -0.000016 0.000047 0.2061 0.0031 -0.0055
106 1 -9.3749 5.6249 -9.3751 0.000059 -0.000056 -0.000061 0.2004 0.0049 0.0097
107 1 -9.3747 5.6252 -5.6249 0.000262 0.000158 0.000107 0.1839 -0.0123 -0.0050
108 1 -9.3750 5.6250 -1.8749 -0.000040 0.000016 0.000110 0.2057 0.0035 -0.0002
109 1 -9.3751 5.6251 1.8751 -0.000053 0.000073 0.000073 0.1954 -0.0059 -0.0028
110 1 -9.3748 5.6250 5.6249 0.000175 0.000041 -0.000053 0.1903 -0.0007 0.0075
111 1 -9.3750 5.6251 9.3750 0.000004 0.000071 0.000026 0.1986 -0.0005 -0.0040
112 1 -9.3749 5.6249 13.1250 0.000124 -0.000100 -0.000008 0.1979 0.0101 0.0025
113 1 -9.3749 9.3750 -13.1250 0.000088 0.000003 0.000045 0.1923 -0.0026 -0.0086
114 1 -9.3751 9.3751 -9.3751 -0.000129 0.000085 -0.000060 0.2104 -0.0103 0.0058
115 1 -9.3750 9.3750 -5.6250 0.000037 -0.000030 0.000011 0.2025 0.0019 -0.0053
116 1 -9.3749 9.3750 -1.8750 0.000106 0.000032 -0.000048 0.1848 0.0039 0.0029
117 1 -9.3749 9.3750 1.8750 0.000059 -0.000018 -0.000004 0.1908 0.0056 0.0013
118 1 -9.3750 9.3751 5.6251 -0.000048 0.000051 0.000080 0.2048 0.0032 -0.0071
119 1 -9.3750 9.3749 9.3750 0.000022 -0.000132 -0.000039 0.2119 0.0103 0.0026
120 1 -9.3750 9.3751 13.1249 -0.000013 0.000061 -0.000086 0.2029 -0.0072 0.0061
121 1 -9.3748 13.1250 -13.1251 0.000177 -0.000035 -0.000079 0.1796 0.0064 -0.0005
122 1 -9.3751 13.1249 -9.3750 -0.000085 -0.000059 -0.000023 0.1986 0.0085 -0.0015
123 1 -9.3750 13.1248 -5.6250 -0.000033 -0.000160 -0.000005 0.1944 0.0080 -0.0014
124 1 -9.3749 13.1251 -1.8750 0.000081 0.000136 -0.000027 0.1863 -0.0097 0.0012
125 1 -9.3750 13.1251 1.8750 -0.000029 0.000059 -0.000009 0.2116 -0.0035 0.0034
126 1 -9.3749 13.1251 5.6251 0.000053 0.000122 0.000108 0.2017 -0.0041 -0.0136
127 1 -9.3750 13.1250 9.3749 -0.000044 -0.000024 -0.000149 0.1956 0.0024 0.0088
128 1 -9.3750 13.1250 13.1249 -0.000023 0.000007 -0.000146 0.2107 0.0063 0.0015
129 1 -5.6251 -13.1251 -13.1251 -0.000085 -0.000085 -0.000052 0.0066 0.0035 -0.0057
130 1 -5.6250 -13.1249 -9.3752 0.000036 0.000139 -0.000166 -0.0079 -0.0143 0.0161
131 1 -5.6250 -13.1250 -5.6248 0.000013 0.000021 0.000200 -0.0076 0.0025 -0.0224
132 1 -5.6250 -13.1248 -1.8751 -0.000026 0.000213 -0.000082 -0.0029 -0.0165 0.0078
133 1 -5.6249 -13.1249 1.8749 0.000078 0.000094 -0.000138 -0.0031 -0.0072 0.0028
134 1 -5.6250 -13.1251 5.6249 0.000045 -0.000073 -0.000082 0.0031 0.0069 0.0014
135 1 -5.6250 -13.1250 9.3751 0.000003 0.000023 0.000057 -0.0068 0.0009 -0.0095
136 1 -5.6250 -13.1250 13.1249 0.000034 0.000025 -0.000087 -0.0024 -0.0071 0.0057
137 1 -5.6250 -9.3749 -13.1250 0.000034 0.000070 0.000025 -0.0010 -0.0049 -0.0030
138 1 -5.6251 -9.3750 -9.3749 -0.000079 0.000034 0.000077 0.0101 0.0085 0.0035
139 1 -5.6250 -9.3750 -5.6248 0.000015 0.000014 0.000194 -0.0077 -0.0021 -0.0123
140 1 -5.6250 -9.3749 -1.8751 -0.000024 0.000065 -0.000066 -0.0001 0.0043 0.0143
141 1 -5.6250 -9.3750 1.8751 0.000032 -0.000012 0.000073 -0.0011 0.0038 -0.0026
142 1 -5.6250 -9.3750 5.6251 0.000046 0.000024 0.000124 -0.0071 -0.0089 -0.0076
143 1 -5.6249 -9.3750 9.3749 0.000094 -0.000006 -0.000058 -0.0059 0.0026 0.0042
144 1 -5.6249 -9.3751 13.1249 0.000060 -0.000056 -0.000122 -0.0114 0.0008 0.0076
145 1 -5.6249 -5.6249 -13.1250 0.000078 0.000063 -0.000020 0.0011 -0.0013 -0.0055
146 1 -5.6248 -5.6248 -9.3750 0.000221 0.000168 0.000025 -0.0174 -0.0136 -0.0105
147 1 -5.6250 -5.6251 -5.6252 0.000034 -0.000057 -0.000207 -0.0015 0.0039 0.0113
148 1 -5.6250 -5.6250 -1.8751 -0.000024 0.000025 -0.000070 0.0005 0.0028 0.0017
149 1 -5.6250 -5.6250 1.8751 -0.000017 -0.000002 0.000131 0.0046 -0.0043 -0.0082
150 1 -5.6251 -5.6251 5.6251 -0.000091 -0.000122 0.000069 0.0020 0.0093 -0.0027
151 1 -5.6249 -5.6250 9.3749 0.000051 0.000031 -0.000096 0.0017 -0.0019 0.0014
152 1 -5.6249 -5.6251 13.1248 0.000087 -0.000089 -0.000198 -0.0011 0.0016 0.0083
153 1 -5.6250 -1.8750 -13.1249 -0.000029 0.000005 0.000070 -0.0057 -0.0032 -0.0035
154 1 -5.6250 -1.8751 -9.3751 -0.000038 -0.000115 -0.000066 0.0067 0.0190 0.0046
155 1 -5.6250 -1.8750 -5.6251 0.000017 0.000007 -0.000052 -0.0082 -0.0006 0.0029
156 1 -5.6251 -1.8749 -1.8750 -0.000140 0.000056 0.000037 0.0092 -0.0016 -0.0078
157 1 -5.6250 -1.8751 1.8749 0.000012 -0.000105 -0.000103 -0.0036 0.0052 0.0034
158 1 -5.6250 -1.8750 5.6249 0.000011 0.000013 -0.000107 -0.0127 -0.0059 0.0010
159 1 -5.6250 -1.8750 9.3749 0.000033 -0.000010 -0.000051 0.0007 0.0089 0.0034
160 1 -5.6250 -1.8750 13.1251 -0.000049 -0.000043 0.000092 0.0037 -0.0037 -0.0050
161 1 -5.6250 1.8748 -13.1250 -0.000033 -0.000159 -0.000033 0.0042 0.0099 0.0048
162 1 -5.6250 1.8751 -9.3749 0.000008 0.000140 0.000091 0.0030 -0.0191 -0.0062
163 1 -5.6250 1.8751 -5.6250 0.000025 0.000055 0.000022 -0.0040 0.0028 -0.0037
164 1 -5.6250 1.8750 -1.8752 -0.000043 0.000028 -0.000164 0.0094 -0.0050 0.0157
165 1 -5.6250 1.8750 1.8751 -0.000018 -0.000040 0.000117 0.0035 0.0001 -0.0093
166 1 -5.6251 1.8750 5.6251 -0.000060 -0.000015 0.000121 0.0048 -0.0010 -0.0079
167 1 -5.6250 1.8752 9.3749 -0.000040 0.000185 -0.000131 0.0001 -0.0123 0.0119
168 1 -5.6250 1.8749 13.1250 0.000011 -0.000094 -0.000019 0.0045 0.0029 -0.0057
169 1 -5.6251 5.6250 -13.1251 -0.000135 -0.000012 -0.000059 -0.0010 -0.0041 0.0055
170 1 -5.6250 5.6248 -9.3750 0.000049 -0.000164 -0.000009 -0.0009 0.0227 -0.0012
171 1 -5.6250 5.6252 -5.6250 -0.000001 0.000168 0.000017 0.0088 -0.0099 -0.0057
172 1 -5.6249 5.6249 -1.8751 0.000071 -0.000140 -0.000101 -0.0100 0.0072 0.0067
173 1 -5.6252 5.6250 1.8750 -0.000194 0.000041 -0.000006 0.0141 -0.0026 -0.0023
174 1 -5.6250 5.6249 5.6250 0.000048 -0.000059 0.000045 0.0053 0.0006 0.0015
175 1 -5.6250 5.6250 9.3751 0.000042 0.000004 0.000129 -0.0044 0.0067 -0.0039
176 1 -5.6250 5.6250 13.1251 0.000022 -0.000036 0.000064 0.0080 0.0006 -0.0017
177 1 -5.6251 9.3750 -13.1250 -0.000089 0.000018 -0.000005 0.0114 -0.0060 0.0050
178 1 -5.6250 9.3752 -9.3749 -0.000018 0.000191 0.000099 -0.0045 -0.0250 -0.0051
179 1 -5.6250 9.3750 -5.6250 0.000001 -0.000028 0.000044 0.0032 0.0115 0.0022
180 1 -5.6250 9.3749 -1.8750 -0.000008 -0.000067 0.000037 0.0076 -0.0064 0.0008
181 1 -5.6250 9.3750 1.8750 -0.000028 0.000028 0.000041 0.0049 -0.0001 0.0008
182 1 -5.6250 9.3749 5.6250 0.000008 -0.000070 0.000048 -0.0033 0.0039 -0.0044
183 1 -5.6249 9.3750 9.3749 0.000150 0.000004 -0.000058 -0.0062 0.0028 0.0062
184 1 -5.6250 9.3750 13.1250 0.000017 0.000039 0.000015 -0.0053 -0.0071 -0.0032
185 1 -5.6251 13.1249 -13.1251 -0.000058 -0.000106 -0.000085 0.0167 0.0049 0.0104
186 1 -5.6251 13.1248 -9.3749 -0.000068 -0.000170 0.000073 0.0028 0.0233 -0.0056
187 1 -5.6251 13.1251 -5.6249 -0.000086 0.000096 0.000051 0.0043 -0.0057 0.0046
188 1 -5.6252 13.1249 -1.8748 -0.000211 -0.000135 0.000151 0.0140 0.0137 -0.0128
189 1 -5.6249 13.1250 1.8749 0.000089 -0.000005 -0.000131 -0.0025 0.0051 0.0201
190 1 -5.6249 13.1250 5.6252 0.000090 0.000050 0.000158 -0.0038 -0.0090 -0.0193
191 1 -5.6251 13.1251 9.3749 -0.000139 0.000072 -0.000115 0.0042 -0.0037 0.0154
192 1 -5.6249 13.1249 13.1251 0.000125 -0.000087 0.000053 -0.0138 0.0084 -0.0105
193 1 -1.8750 -13.1249 -13.1249 0.000017 0.000116 0.000053 -0.0460 0.0048 -0.0045
194 1 -1.8751 -13.1248 -9.3751 -0.000128 0.000184 -0.000139 -0.0388 0.0171 0.0135
195 1 -1.8751 -13.1251 -5.6250 -0.000101 -0.000101 0.000049 -0.0401 0.0269 -0.0121
196 1 -1.8751 -13.1250 -1.8751 -0.000118 -0.000006 -0.000100 -0.0380 0.0230 0.0075
197 1 -1.8751 -13.1249 1.8750 -0.000095 0.000081 -0.000019 -0.0390 0.0172 0.0030
198 1 -1.8748 -13.1249 5.6251 0.000204 0.000080 0.000142 -0.0659 0.0198 -0.0084
199 1 -1.8751 -13.1251 9.3750 -0.000126 -0.000057 0.000036 -0.0411 0.0268 0.0065
200 1 -1.8750 -13.1249 13.1251 0.000004 0.000065 0.000104 -0.0489 0.0163 -0.0036
201 1 -1.8750 -9.3753 -13.1250 -0.000020 -0.000256 -0.000005 0.0019 0.0214 -0.0017
202 1 -1.8749 -9.3749 -9.3751 0.000078 0.000148 -0.000069 -0.0041 -0.0026 0.0026
203 1 -1.8751 -9.3751 -5.6250 -0.000117 -0.000074 -0.000031 0.0036 0.0015 0.0006
204 1 -1.8750 -9.3750 -1.8750 -0.000002 -0.000039 0.000044 0.0020 0.0032 -0.0045
205 1 -1.8749 -9.3749 1.8750 0.000067 0.000075 -0.000026 -0.0062 0.0012 0.0037
206 1 -1.8750 -9.3749 5.6250 0.000042 0.000052 0.000015 -0.0035 -0.0022 -0.0061
207 1 -1.8749 -9.3751 9.3749 0.000112 -0.000077 -0.000099 -0.0030 -0.0042 0.0078
208 1 -1.8752 -9.3749 13.1250 -0.000152 0.000091 0.000020 0.0065 -0.0046 -0.0051
209 1 -1.8749 -5.6250 -13.1251 0.000147 0.000036 -0.000070 -0.0060 -0.0080 0.0110
210 1 -1.8750 -5.6250 -9.3748 -0.000027 -0.000016 0.000193 0.0066 0.0006 -0.0152
211 1 -1.8750 -5.6250 -5.6250 0.000037 0.000015 -0.000010 -0.0053 0.0007 0.0081
212 1 -1.8750 -5.6250 -1.8750 -0.000003 0.000028 -0.000010 -0.0027 -0.0029 0.0001
213 1 -1.8749 -5.6249 1.8750 0.000075 0.000081 -0.000007 -0.0051 -0.0025 -0.0027
214 1 -1.8751 -5.6250 5.6249 -0.000087 -0.000045 -0.000071 -0.0051 0.0053 0.0060
215 1 -1.8749 -5.6252 9.3750 0.000076 -0.000184 0.000046 -0.0061 0.0077 -0.0057
216 1 -1.8749 -5.6251 13.1250 0.000101 -0.000052 -0.000020 -0.0072 0.0028 0.0005
217 1 -1.8751 -1.8749 -13.1249 -0.000094 0.000093 0.000051 0.0027 -0.0041 -0.0005
218 1 -1.8750 -1.8752 -9.3750 0.000037 -0.000151 -0.000022 -0.0009 0.0077 -0.0006
219 1 -1.8751 -1.8749 -5.6251 -0.000086 0.000115 -0.000103 0.0035 -0.0068 0.0066
220 1 -1.8750 -1.8750 -1.8750 0.000026 0.000016 0.000025 -0.0075 -0.0016 -0.0027
221 1 -1.8751 -1.8750 1.8751 -0.000138 -0.000003 0.000075 0.0115 0.0032 -0.0048
222 1 -1.8751 -1.8750 5.6250 -0.000101 0.000001 -0.000025 0.0065 0.0001 0.0000
223 1 -1.8750 -1.8750 9.3749 -0.000033 -0.000039 -0.000128 -0.0026 -0.0050 0.0109
224 1 -1.8750 -1.8751 13.1251 0.000024 -0.000108 0.000097 -0.0054 0.0114 -0.0095
225 1 -1.8750 1.8750 -13.1250 0.000035 0.000004 0.000008 -0.0118 -0.0031 0.0092
226 1 -1.8750 1.8750 -9.3750 0.000016 -0.000042 0.000029 0.0012 -0.0048 -0.0048
227 1 -1.8751 1.8750 -5.6251 -0.000086 -0.000002 -0.000081 -0.0018 0.0022 -0.0001
228 1 -1.8749 1.8750 -1.8750 0.000083 -0.000036 -0.000013 -0.0395 -0.0148 -0.0057
229 1 -1.8749 1.8750 1.8751 0.000148 -0.000012 0.000066 -0.0542 -0.0240 -0.0060
230 1 -1.8749 1.8751 5.6250 0.000074 0.000057 -0.000022 -0.0527 -0.0295 0.0057
231 1 -1.8751 1.8750 9.3751 -0.000057 -0.000019 0.000055 -0.0440 -0.0222 0.0001
232 1 -1.8750 1.8752 13.1251 0.000047 0.000162 0.000086 -0.0415 -0.0343 0.0028
233 1 -1.8751 5.6250 -13.1249 -0.000105 -0.000017 0.000130 -0.0773 -0.0207 0.0081
234 1 -1.8750 5.6250 -9.3749 -0.000004 -0.000039 0.000058 -0.0415 -0.0220 0.0047
235 1 -1.8750 5.6251 -5.6249 -0.000021 0.000099 0.000102 -0.0689 -0.0334 -0.0175
236 1 -1.8751 5.6250 -1.8750 -0.000113 0.000002 -0.000027 -0.1143 -0.0176 -0.0028
237 1 -1.8749 5.6250 1.8751 0.000104 -0.000025 0.000088 -0.1633 -0.0221 -0.0050
238 1 -1.8750 5.6249 5.6250 0.000040 -0.000055 0.000045 -0.1540 -0.0179 -0.0058
239 1 -1.8750 5.6251 9.3748 -0.000034 0.000064 -0.000161 -0.1456 -0.0257 0.0139
240 1 -1.8749 5.6249 13.1251 0.000128 -0.000059 0.000060 -0.1360 -0.0147 0.0064
241 1 -1.8749 9.3750 -13.1252 0.000053 0.000037 -0.000157 -0.1706 -0.0220 0.0185
242 1 -1.8750 9.3750 -9.3749 -0.000025 0.000014 0.000084 -0.1483 -0.0263 -0.0118
243 1 -1.8750 9.3749 -5.6250 0.000047 -0.000080 -0.000019 -0.1673 -0.0095 -0.0042
244 1 -1.8749 9.3752 -1.8751 0.000075 0.000193 -0.000066 -0.1937 -0.0175 -0.0052
245 1 -1.8750 9.3750 1.8749 0.000021 0.000007 -0.000071 -0.2045 -0.0048 0.0058
246 1 -1.8750 9.3750 5.6251 -0.000011 0.000003 0.000103 -0.1966 -0.0032 -0.0107
247 1 -1.8749 9.3751 9.3750 0.000070 0.000069 -0.000041 -0.2015 0.0010 0.0063
248 1 -1.8751 9.3750 13.1250 -0.000089 -0.000028 -0.000011 -0.1821 -0.0127 -0.0010
249 1 -1.8748 13.1250 -13.1251 0.000163 -0.000037 -0.000055 -0.1680 0.0322 0.0039
250 1 -1.8750 13.1250 -9.3751 0.000038 -0.000002 -0.000107 -0.1602 0.0319 0.0071
251 1 -1.8750 13.1250 -5.6249 -0.000015 -0.000008 0.000056 -0.1621 0.0170 -0.0072
252 1 -1.8751 13.1250 -1.8750 -0.000074 0.000014 0.000007 -0.1555 0.0302 0.0027
253 1 -1.8749 13.1249 1.8750 0.000115 -0.000091 0.000032 -0.1529 0.0326 -0.0026
254 1 -1.8750 13.1250 5.6250 0.000005 -0.000020 -0.000033 -0.1490 0.0277 0.0064
255 1 -1.8751 13.1251 9.3751 -0.000068 0.000076 0.000102 -0.1478 0.0197 -0.0034
256 1 -1.8751 13.1248 13.1251 -0.000141 -0.000176 0.000116 -0.1426 0.0364 -0.0061
257 1 1.8752 -13.1249 -13.1250 0.000150 0.000076 -0.000046 -0.7795 0.5927 0.0055
258 1 1.8750 -13.1250 -9.3750 -0.000035 -0.000041 0.000042 -0.7721 0.5877 -0.0109
259 1 1.8750 -13.1251 -5.6252 -0.000018 -0.000049 -0.000174 -0.7762 0.6020 0.0155
260 1 1.8751 -13.1251 -1.8749 0.000059 -0.000060 0.000070 -0.7769 0.5953 -0.0081
261 1 1.8750 -13.1248 1.8751 -0.000005 0.000180 0.000063 -0.7728 0.5842 0.0012
262 1 1.8748 -13.1250 5.6251 -0.000202 0.000045 0.000064 -0.7432 0.5996 -0.0025
263 1 1.8750 -13.1248 9.3750 -0.000041 0.000229 -0.000010 -0.7754 0.5722 0.0042
264 1 1.8749 -13.1250 13.1250 -0.000092 -0.000032 0.000038 -0.7609 0.6004 -0.0046
265 1 1.8750 -9.3749 -13.1250 -0.000015 0.000063 0.000011 -0.2239 0.0403 0.0030
266 1 1.8751 -9.3751 -9.3749 0.000087 -0.000080 0.000124 -0.2295 0.0522 -0.0093
267 1 1.8749 -9.3750 -5.6250 -0.000121 0.000016 -0.000035 -0.2217 0.0447 0.0049
268 1 1.8751 -9.3750 -1.8751 0.000070 -0.000045 -0.000061 -0.2261 0.0468 0.0055
269 1 1.8749 -9.3750 1.8751 -0.000082 -0.000035 0.000082 -0.2165 0.0560 -0.0033
270 1 1.8749 -9.3749 5.6251 -0.000057 0.000067 0.000099 -0.2246 0.0437 -0.0075
271 1 1.8750 -9.3750 9.3749 0.000010 -0.000019 -0.000113 -0.2250 0.0557 0.0098
272 1 1.8749 -9.3750 13.1250 -0.000137 0.000038 -0.000028 -0.2196 0.0508 -0.0022
273 1 1.8750 -5.6252 -13.1250 0.000012 -0.000167 -0.000040 -0.1943 0.0133 0.0037
274 1 1.8749 -5.6250 -9.3750 -0.000073 0.000036 0.000030 -0.1948 -0.0141 -0.0089
275 1 1.8749 -5.6250 -5.6251 -0.000128 -0.000009 -0.000131 -0.1873 -0.0006 0.0098
276 1 1.8749 -5.6250 -1.8750 -0.000051 -0.000039 0.000012 -0.1957 -0.0029 -0.0076
277 1 1.8750 -5.6250 1.8749 -0.000001 0.000003 -0.000060 -0.1936 -0.0079 0.0042
278 1 1.8748 -5.6250 5.6250 -0.000191 -0.000021 0.000006 -0.1930 0.0086 -0.0019
279 1 1.8749 -5.6250 9.3750 -0.000077 -0.000029 0.000021 -0.1880 0.0032 -0.0004
280 1 1.8749 -5.6248 13.1250 -0.000103 0.000189 0.000003 -0.1962 -0.0183 -0.0011
281 1 1.8750 -1.8750 -13.1250 -0.000047 0.000014 -0.000049 -0.2068 -0.0182 0.0088
282 1 1.8751 -1.8752 -9.3751 0.000073 -0.000243 -0.000070 -0.1998 0.0211 0.0103
283 1 1.8749 -1.8751 -5.6248 -0.000073 -0.000055 0.000199 -0.2013 -0.0059 -0.0207
284 1 1.8750 -1.8751 -1.8750 -0.000025 -0.000098 0.000011 -0.2063 -0.0302 0.0033
285 1 1.8751 -1.8752 1.8751 0.000063 -0.000170 0.000069 -0.2329 -0.0362 -0.0036
286 1 1.8750 -1.8749 5.6250 -0.000026 0.000130 0.000014 -0.2262 -0.0523 -0.0009
287 1 1.8748 -1.8749 9.3749 -0.000168 0.000059 -0.000067 -0.2137 -0.0550 0.0083
288 1 1.8749 -1.8752 13.1251 -0.000058 -0.000221 0.000067 -0.2134 -0.0137 -0.0028
289 1 1.8751 1.8750 -13.1250 0.000079 0.000002 -0.000017 -0.3189 -0.1454 0.0942
290 1 1.8751 1.8751 -9.3751 0.000054 0.000111 -0.000060 -0.2336 -0.0797 0.0052
291 1 1.8751 1.8751 -5.6249 0.000096 0.000054 0.000057 -0.3280 -0.1456 -0.0999
292 1 1.8751 1.8750 -1.8749 0.000083 -0.000005 0.000140 -0.6897 -0.5067 -0.1058
293 1 1.8751 1.8750 1.8750 0.000092 -0.000004 -0.000005 -0.7650 -0.5990 -0.0067
294 1 1.8750 1.8751 5.6250 0.000043 0.000102 -0.000004 -0.7687 -0.5972 -0.0097
295 1 1.8750 1.8749 9.3747 0.000033 -0.000086 -0.000271 -0.7680 -0.5798 0.0255
296 1 1.8749 1.8750 13.1249 -0.000078 0.000022 -0.000097 -0.6718 -0.5147 0.0941
297 1 1.8748 5.6249 -13.1249 -0.000204 -0.000134 0.000085 -1.1346 -0.5868 0.3857
298 1 1.8751 5.6249 -9.3750 0.000090 -0.000122 -0.000008 -0.8053 -0.5829 0.0072
299 1 1.8750 5.6250 -5.6249 0.000024 0.000012 0.000087 -1.1483 -0.5984 -0.3964
300 1 1.8751 5.6250 -1.8751 0.000165 -0.000050 -0.000128 5.9912 -0.5901 -0.3721
301 1 1.8751 5.6249 1.8751 0.000125 -0.000090 0.000052 5.6391 -0.5940 -0.0328
302 1 1.8750 5.6250 5.6250 0.000024 -0.000006 -0.000018 5.6271 -0.5885 0.0031
303 1 1.8751 5.6251 9.3750 0.000135 0.000056 -0.000004 5.6340 -0.6072 0.0310
304 1 1.8750 5.6249 13.1252 0.000027 -0.000089 0.000176 6.0048 -0.5922 0.3769
305 1 1.8750 9.3750 -13.1250 0.000041 -0.000026 -0.000003 5.5586 -0.4570 0.0912
306 1 1.8751 9.3750 -9.3751 0.000129 -0.000009 -0.000115 5.6344 -0.5466 0.0058
307 1 1.8750 9.3749 -5.6250 0.000036 -0.000120 -0.000050 5.5583 -0.4436 -0.0970
308 1 1.8750 9.3750 -1.8749 0.000020 0.000048 0.000077 5.1981 -0.0999 -0.1103
309 1 1.8750 9.3749 1.8749 -0.000008 -0.000128 -0.000122 5.1093 0.0016 -0.0026
310 1 1.8751 9.3751 5.6249 0.000106 0.000065 -0.000056 5.0997 0.0016 -0.0009
311 1 1.8749 9.3749 9.3750 -0.000046 -0.000138 -0.000006 5.1120 -0.0023 0.0062
312 1 1.8750 9.3749 13.1249 0.000034 -0.000115 -0.000103 5.1921 -0.0861 0.1051
313 1 1.8749 13.1250 -13.1249 -0.000039 0.000013 0.000098 5.6520 0.5607 -0.0004
314 1 1.8749 13.1248 -9.3751 -0.000042 -0.000181 -0.000080 5.6537 0.5578 0.0055
315 1 1.8748 13.1251 -5.6251 -0.000169 0.000067 -0.000105 5.6494 0.5492 0.0003
316 1 1.8750 13.1250 -1.8750 0.000041 -0.000044 0.000048 5.6290 0.5855 -0.0149
317 1 1.8751 13.1251 1.8750 0.000131 0.000065 -0.000045 5.6276 0.5926 0.0029
318 1 1.8750 13.1252 5.6249 0.000066 0.000155 -0.000051 5.6251 0.5892 0.0025
319 1 1.8752 13.1248 9.3750 0.000181 -0.000207 0.000020 5.6197 0.6117 -0.0005
320 1 1.8749 13.1251 13.1251 -0.000066 0.000064 0.000080 5.6295 0.5744 0.0048
321 1 5.6250 -13.1249 -13.1249 0.000059 0.000118 0.000088 5.0591 -6.2968 -0.0079
322 1 5.6251 -13.1250 -9.3749 0.000092 0.000008 0.000075 5.0518 -6.3003 -0.0003
323 1 5.6249 -13.1250 -5.6249 -0.000044 -0.000042 0.000057 5.0562 -6.2935 -0.0064
324 1 5.6251 -13.1249 -1.8751 0.000111 0.000087 -0.000142 5.0545 -6.2981 0.0079
325 1 5.6251 -13.1249 1.8749 0.000077 0.000094 -0.000101 5.0526 -6.2927 0.0003
326 1 5.6252 -13.1250 5.6250 0.000234 -0.000005 -0.000045 5.0414 -6.2932 0.0034
327 1 5.6250 -13.1250 9.3751 -0.000023 -0.000046 0.000110 5.0546 -6.2874 -0.0139
328 1 5.6251 -13.1250 13.1249 0.000143 -0.000054 -0.000124 5.0480 -6.2981 0.0158
329 1 5.6250 -9.3750 -13.1250 0.000028 0.000007 0.000007 5.0543 0.1126 0.0091
330 1 5.6249 -9.3752 -9.3748 -0.000064 -0.000179 0.000200 5.0605 0.1197 -0.0098
331 1 5.6250 -9.3750 -5.6249 -0.000012 -0.000037 0.000104 5.0515 0.1010 0.0038
332 1 5.6251 -9.3751 -1.8749 0.000077 -0.000059 0.000087 5.0559 0.1162 -0.0110
333 1 5.6250 -9.3749 1.8747 0.000017 0.000112 -0.000258 5.0521 0.1029 0.0193
334 1 5.6248 -9.3750 5.6250 -0.000154 0.000011 -0.000032 5.0579 0.1067 -0.0060
335 1 5.6249 -9.3749 9.3750 -0.000110 0.000133 0.000039 5.0593 0.0960 -0.0011
336 1 5.6250 -9.3752 13.1251 0.000043 -0.000168 0.000066 5.0498 0.1121 -0.0026
337 1 5.6250 -5.6250 -13.1250 0.000045 0.000041 0.000008 5.0550 -0.0010 0.0081
338 1 5.6251 -5.6250 -9.3749 0.000080 0.000017 0.000079 5.0503 -0.0000 -0.0089
339 1 5.6251 -5.6252 -5.6251 0.000096 -0.000184 -0.000094 5.0479 0.0087 0.0063
340 1 5.6250 -5.6249 -1.8751 0.000060 0.000070 -0.000081 5.0511 -0.0091 0.0035
341 1 5.6251 -5.6250 1.8750 0.000114 0.000006 0.000040 5.0523 0.0013 -0.0065
342 1 5.6249 -5.6250 5.6250 -0.000036 0.000042 -0.000039 5.0496 -0.0043 -0.0008
343 1 5.6251 -5.6250 9.3749 0.000121 -0.000004 -0.000130 5.0500 0.0021 0.0127
344 1 5.6248 -5.6251 13.1252 -0.000157 -0.000088 0.000151 5.0560 0.0011 -0.0148
345 1 5.6250 -1.8750 -13.1251 0.000026 0.000025 -0.000075 5.0528 -0.0208 0.0179
346 1 5.6251 -1.8748 -9.3750 0.000126 0.000204 -0.000034 5.0542 -0.0080 0.0012
347 1 5.6251 -1.8751 -5.6250 0.000117 -0.000058 0.000048 5.0489 -0.0293 -0.0200
348 1 5.6253 -1.8751 -1.8751 0.000272 -0.000072 -0.000094 5.0470 -0.0803 -0.0041
349 1 5.6250 -1.8751 1.8750 0.000040 -0.000061 -0.000012 5.0561 -0.0972 0.0006
350 1 5.6250 -1.8751 5.6251 0.000007 -0.000052 0.000096 5.0544 -0.0970 -0.0092
351 1 5.6250 -1.8751 9.3749 0.000036 -0.000089 -0.000069 5.0482 -0.0960 0.0107
352 1 5.6250 -1.8750 13.1251 0.000003 0.000050 0.000055 5.0538 -0.0907 0.0026
353 1 5.6251 1.8751 -13.1250 0.000067 0.000102 -0.000022 5.0563 -0.4877 0.3894
354 1 5.6252 1.8751 -9.3750 0.000175 0.000119 0.000025 5.0526 -0.1338 -0.0040
355 1 5.6250 1.8749 -5.6250 -0.000009 -0.000060 -0.000044 5.0595 -0.4738 -0.3855
356 1 5.6248 1.8748 -1.8751 -0.000196 -0.000152 -0.000102 5.0642 6.6686 -0.3788
357 1 5.6251 1.8751 1.8750 0.000080 0.000120 0.000033 5.0568 6.2998 -0.0337
358 1 5.6251 1.8751 5.6249 0.000119 0.000121 -0.000100 5.0534 6.2871 0.0041
359 1 5.6251 1.8751 9.3749 0.000080 0.000129 -0.000106 5.0543 6.2983 0.0296
360 1 5.6250 1.8749 13.1250 0.000026 -0.000056 0.000036 5.0520 6.6698 0.3783
361 1 5.6250 5.6249 -13.1250 0.000061 -0.000047 0.000013 5.0463 6.2991 -7.0891
362 1 5.6249 5.6249 -9.3750 -0.000073 -0.000070 -0.000015 5.0609 6.3000 0.0045
363 1 5.6250 5.6251 -5.6249 0.000020 0.000112 0.000082 5.0561 6.2877 7.0848
ITEM: TIMESTEP
10
ITEM: NUMBER OF ATOMS
363
ITEM: BOX BOUNDS pp pp pp
-15.000000 15.000000
-15.000000 15.000000
-15.000000 15.000000
ITEM: ATOMS id type xu yu zu vx vy vz fx fy fz
1 1 -13.1264 -13.1246 -13.1247 -0.000299 0.000036 0.000026 -4.9858 0.0332 0.0075
2 1 -13.1274 -13.1243 -9.3748 -0.000392 0.000065 0.000014 -4.9804 -0.0574 -0.0499
3 1 -13.1275 -13.1245 -5.6265 -0.000404 0.000041 -0.000131 -4.9989 -0.0280 0.0737
4 1 -13.1269 -13.1258 -1.8759 -0.000349 -0.000074 -0.000082 -4.9934 0.1057 -0.0238
5 1 -13.1262 -13.1258 1.8742 -0.000282 -0.000074 -0.000074 -4.9478 -0.0103 -0.0183
6 1 -13.1266 -13.1268 5.6240 -0.000314 -0.000166 -0.000088 -5.0089 0.0878 -0.0208