ITEM: TIMESTEP
0
ITEM: NUMBER OF ATOMS
363
ITEM: BOX BOUNDS pp pp pp
-15.000000 15.000000
-15.000000 15.000000
-15.000000 15.000000
ITEM: ATOMS id type xu yu zu vx vy vz fx fy fz
1 1 -0.0000 0.0001 -0.0002 -13.125012 -13.124971 -13.125093 -5.0541 -0.0027 0.0076
2 1 0.0000 0.0001 -0.0001 -13.124983 -13.124959 -9.375045 -5.0560 0.0008 0.0033
3 1 0.0001 0.0000 0.0002 -13.124928 -13.124997 -5.624900 -5.0546 0.0013 -0.0096
4 1 -0.0001 0.0000 -0.0001 -13.125047 -13.124991 -1.875038 -5.0518 0.0037 0.0068
5 1 -0.0002 -0.0001 0.0000 -13.125078 -13.125040 1.875018 -5.0493 0.0058 -0.0048
6 1 -0.0001 0.0000 -0.0001 -13.125049 -13.125000 5.624946 -5.0552 0.0029 0.0059
7 1 0.0000 0.0000 0.0001 -13.124974 -13.124976 9.375044 -5.0553 -0.0060 -0.0018
8 1 -0.0001 -0.0001 0.0002 -13.125047 -13.125042 13.125081 -5.0524 0.0018 -0.0071
9 1 -0.0001 -0.0000 0.0000 -13.125047 -9.375021 -13.124981 -5.0575 0.0007 -0.0020
10 1 0.0001 0.0000 -0.0000 -13.124936 -9.374985 -9.375014 -5.0556 0.0010 0.0008
11 1 0.0001 0.0001 -0.0000 -13.124959 -9.374957 -5.625021 -5.0538 -0.0032 0.0012
12 1 -0.0000 0.0000 0.0000 -13.125008 -9.374985 -1.874989 -5.0586 -0.0011 -0.0018
13 1 0.0000 0.0000 -0.0000 -13.124995 -9.374977 1.874987 -5.0534 -0.0004 0.0030
14 1 0.0000 0.0001 0.0001 -13.124995 -9.374957 5.625047 -5.0566 -0.0035 -0.0047
15 1 -0.0000 -0.0001 -0.0001 -13.125002 -9.375056 9.374971 -5.0534 0.0049 0.0030
16 1 -0.0001 0.0000 -0.0000 -13.125042 -9.374986 13.124985 -5.0526 -0.0002 0.0005
17 1 0.0000 -0.0001 -0.0001 -13.124976 -5.625042 -13.125053 -5.0514 0.0029 0.0054
18 1 -0.0002 0.0000 0.0000 -13.125094 -5.624992 -9.374982 -5.0506 -0.0022 -0.0031
19 1 -0.0000 -0.0000 -0.0000 -13.125003 -5.625010 -5.625003 -5.0574 0.0012 -0.0024
20 1 0.0001 -0.0000 -0.0002 -13.124962 -5.625004 -1.875092 -5.0530 -0.0007 0.0077
21 1 -0.0002 0.0002 0.0001 -13.125084 -5.624924 1.875044 -5.0529 -0.0035 -0.0052
22 1 0.0000 -0.0000 0.0001 -13.124995 -5.625018 5.625034 -5.0547 0.0051 0.0008
23 1 -0.0000 0.0000 0.0001 -13.125001 -5.624990 9.375038 -5.0549 -0.0015 0.0005
24 1 -0.0001 0.0001 0.0001 -13.125022 -5.624942 13.125044 -5.0569 -0.0025 -0.0037
25 1 -0.0001 0.0001 0.0002 -13.125060 -1.874969 -13.124903 -5.0497 -0.0032 -0.0025
26 1 0.0000 -0.0001 0.0000 -13.124983 -1.875065 -9.374988 -5.0563 0.0038 0.0011
27 1 0.0000 -0.0001 -0.0001 -13.124978 -1.875029 -5.625045 -5.0527 -0.0001 0.0023
28 1 -0.0000 -0.0001 -0.0001 -13.125020 -1.875038 -1.875031 -5.0533 0.0030 0.0033
29 1 -0.0001 0.0000 0.0002 -13.125028 -1.874980 1.875076 -5.0530 -0.0002 -0.0073
30 1 0.0000 0.0001 -0.0001 -13.124989 -1.874932 5.624972 -5.0556 -0.0053 0.0034
31 1 -0.0000 0.0001 -0.0001 -13.125017 -1.874961 9.374966 -5.0549 -0.0018 0.0046
32 1 -0.0001 0.0000 0.0002 -13.125032 -1.874976 13.125091 -5.0535 0.0006 -0.0038
33 1 -0.0001 0.0000 -0.0001 -13.125048 1.875005 -13.125057 -5.0558 -0.0012 0.0043
34 1 0.0000 -0.0000 -0.0000 -13.124992 1.874982 -9.375008 -5.0544 -0.0004 -0.0009
35 1 -0.0002 -0.0001 0.0000 -13.125086 1.874953 -5.624987 -5.0514 0.0005 0.0009
36 1 0.0000 0.0000 0.0001 -13.124986 1.875016 -1.874941 -5.0552 -0.0021 -0.0040
37 1 -0.0000 -0.0001 -0.0000 -13.125009 1.874955 1.874982 -5.0553 0.0045 0.0031
38 1 0.0001 0.0000 -0.0000 -13.124959 1.875003 5.624992 -5.0557 0.0031 -0.0005
39 1 -0.0000 0.0000 -0.0000 -13.125006 1.875019 9.374981 -5.0555 0.0009 0.0019
40 1 -0.0000 0.0000 0.0001 -13.125000 1.875007 13.125026 -5.0548 0.0016 -0.0049
41 1 0.0001 -0.0001 -0.0001 -13.124959 5.624944 -13.125031 -5.0572 0.0046 0.0037
42 1 -0.0000 0.0000 -0.0001 -13.125013 5.625017 -9.375027 -5.0528 -0.0036 0.0047
43 1 0.0000 -0.0001 0.0002 -13.124974 5.624958 -5.624892 -5.0558 0.0021 -0.0084
44 1 -0.0001 0.0000 -0.0000 -13.125047 5.625002 -1.875008 -5.0547 0.0018 0.0028
45 1 0.0000 0.0000 -0.0001 -13.124989 5.625024 1.874956 -5.0520 -0.0045 -0.0016
46 1 -0.0001 0.0000 -0.0002 -13.125055 5.625024 5.624886 -5.0549 0.0007 0.0103
47 1 -0.0001 0.0000 0.0002 -13.125041 5.625023 9.375113 -5.0537 -0.0001 -0.0093
48 1 -0.0000 0.0001 0.0001 -13.125006 5.625027 13.125065 -5.0565 -0.0006 -0.0014
49 1 -0.0000 0.0000 0.0000 -13.125003 9.375019 -13.124997 -5.0551 -0.0035 -0.0010
50 1 0.0000 -0.0001 -0.0001 -13.124983 9.374941 -9.375052 -5.0552 0.0075 0.0026
51 1 -0.0001 0.0001 -0.0001 -13.125042 9.375029 -5.625029 -5.0562 -0.0035 0.0013
52 1 -0.0000 0.0001 0.0001 -13.125002 9.375037 -1.874958 -5.0559 0.0014 -0.0038
53 1 -0.0001 -0.0001 0.0000 -13.125039 9.374975 1.875010 -5.0554 0.0050 0.0004
54 1 0.0001 0.0001 -0.0000 -13.124969 9.375065 5.624990 -5.0553 -0.0019 -0.0001
55 1 -0.0000 0.0000 -0.0001 -13.125001 9.375024 9.374965 -5.0578 -0.0033 0.0029
56 1 0.0000 0.0000 0.0001 -13.124982 9.375022 13.125028 -5.0530 -0.0021 -0.0033
57 1 -0.0001 -0.0000 -0.0000 -13.125023 13.124997 -13.125005 -5.0560 0.0019 -0.0007
58 1 -0.0002 0.0002 -0.0000 -13.125073 13.125080 -9.375023 -5.0517 -0.0061 0.0016
59 1 -0.0000 0.0000 -0.0000 -13.125015 13.125002 -5.625001 -5.0526 0.0006 0.0022
60 1 -0.0000 0.0002 0.0002 -13.125001 13.125103 -1.874919 -5.0564 -0.0054 -0.0033
61 1 -0.0000 0.0001 0.0001 -13.125012 13.125072 1.875054 -5.0558 -0.0075 -0.0012
62 1 0.0000 0.0001 -0.0000 -13.124973 13.125042 5.624985 -5.0582 -0.0003 0.0021
63 1 0.0000 -0.0001 -0.0001 -13.124981 13.124935 9.374972 -5.0577 0.0060 0.0011
64 1 0.0001 -0.0001 -0.0000 -13.124942 13.124959 13.124992 -5.0575 0.0020 -0.0008
65 1 0.0000 -0.0001 0.0000 -9.374985 -13.125043 -13.124993 0.1980 0.0046 -0.0010
66 1 -0.0000 -0.0001 -0.0000 -9.375007 -13.125026 -9.375010 0.2008 -0.0028 -0.0009
67 1 0.0001 0.0001 -0.0001 -9.374928 -13.124960 -5.625055 0.2002 -0.0010 0.0028
68 1 0.0001 0.0001 -0.0000 -9.374945 -13.124970 -1.875007 0.1951 0.0006 -0.0005
69 1 0.0002 0.0003 0.0000 -9.374907 -13.124847 1.875023 0.1944 -0.0105 -0.0010
70 1 -0.0001 0.0001 0.0000 -9.375040 -13.124925 5.625015 0.2003 -0.0061 -0.0020
71 1 0.0000 -0.0001 -0.0001 -9.374988 -13.125034 9.374942 0.2007 0.0033 0.0040
72 1 0.0001 -0.0001 -0.0000 -9.374960 -13.125047 13.124990 0.1985 0.0070 -0.0012
73 1 -0.0002 0.0001 -0.0000 -9.375096 -9.374973 -13.125003 0.2037 -0.0013 -0.0007
74 1 0.0001 -0.0002 0.0001 -9.374965 -9.375105 -9.374961 0.2015 0.0040 -0.0034
75 1 0.0002 0.0000 -0.0000 -9.374924 -9.374976 -5.625025 0.2007 0.0001 0.0039
76 1 -0.0002 0.0001 0.0000 -9.375097 -9.374941 -1.874985 0.2029 -0.0041 -0.0031
77 1 0.0001 0.0001 -0.0001 -9.374958 -9.374972 1.874969 0.1992 0.0043 0.0020
78 1 -0.0001 0.0000 -0.0000 -9.375038 -9.374990 5.624983 0.2028 0.0027 -0.0012
79 1 0.0001 0.0000 -0.0001 -9.374952 -9.374983 9.374968 0.1982 -0.0007 -0.0005
80 1 0.0001 0.0001 -0.0001 -9.374968 -9.374975 13.124942 0.1960 -0.0016 0.0025
81 1 0.0002 0.0001 0.0002 -9.374892 -5.624952 -13.124918 0.1965 -0.0038 -0.0057
82 1 0.0001 -0.0001 -0.0001 -9.374942 -5.625043 -9.375043 0.1913 0.0015 0.0053
83 1 -0.0001 0.0000 -0.0000 -9.375062 -5.624999 -5.625015 0.2031 0.0006 -0.0005
84 1 0.0002 -0.0001 -0.0000 -9.374919 -5.625035 -1.875002 0.1956 0.0058 0.0001
85 1 -0.0000 0.0000 0.0000 -9.375004 -5.624984 1.875008 0.1969 -0.0012 -0.0033
86 1 0.0000 0.0001 -0.0001 -9.374987 -5.624975 5.624928 0.2020 -0.0013 0.0044
87 1 0.0000 0.0001 -0.0000 -9.374995 -5.624956 9.374984 0.1997 -0.0019 -0.0005
88 1 -0.0001 0.0001 0.0001 -9.375065 -5.624952 13.125030 0.2025 -0.0020 0.0007
89 1 0.0002 -0.0001 0.0001 -9.374900 -1.875047 -13.124968 0.1910 0.0043 -0.0045
90 1 -0.0000 0.0001 -0.0000 -9.375022 -1.874926 -9.375003 0.2013 -0.0076 0.0021
91 1 0.0002 -0.0000 0.0000 -9.374920 -1.875014 -5.624988 0.1972 0.0025 -0.0003
92 1 0.0001 0.0001 0.0000 -9.374959 -1.874962 -1.874989 0.1975 -0.0052 -0.0002
93 1 0.0001 -0.0001 0.0000 -9.374967 -1.875026 1.875001 0.1976 0.0056 -0.0012
94 1 -0.0000 -0.0000 -0.0001 -9.375003 -1.875002 5.624968 0.2024 0.0024 0.0022
95 1 -0.0000 0.0000 -0.0000 -9.375008 -1.874986 9.374994 0.1998 0.0011 -0.0025
96 1 0.0000 0.0000 -0.0001 -9.374984 -1.874993 13.124948 0.1968 -0.0002 0.0040
97 1 -0.0001 -0.0000 0.0000 -9.375055 1.874990 -13.124986 0.2044 -0.0024 -0.0034
98 1 0.0000 -0.0001 -0.0003 -9.374980 1.874962 -9.375131 0.2008 0.0010 0.0093
99 1 0.0001 0.0001 0.0000 -9.374961 1.875051 -5.624987 0.1960 -0.0046 -0.0063
100 1 0.0000 -0.0001 -0.0000 -9.374998 1.874954 -1.875016 0.2005 0.0058 0.0019
101 1 -0.0000 0.0002 0.0000 -9.375006 1.875091 1.875012 0.1992 -0.0036 -0.0025
102 1 0.0000 0.0001 -0.0001 -9.374986 1.875037 5.624971 0.2000 -0.0006 -0.0004
103 1 -0.0000 0.0000 -0.0002 -9.375014 1.875017 9.374922 0.2027 -0.0010 0.0061
104 1 0.0000 -0.0001 0.0001 -9.374993 1.874956 13.125060 0.2015 -0.0000 -0.0061
105 1 -0.0001 -0.0001 -0.0001 -9.375026 5.624962 -13.125056 0.2034 0.0043 0.0043
106 1 0.0001 -0.0002 0.0001 -9.374940 5.624890 -9.374974 0.1970 0.0074 -0.0054
107 1 -0.0000 -0.0001 -0.0001 -9.375005 5.624973 -5.625056 0.1991 0.0055 0.0026
108 1 -0.0000 0.0001 -0.0001 -9.375019 5.625047 -1.875043 0.1992 -0.0052 0.0018
109 1 0.0002 0.0002 0.0001 -9.374915 5.625087 1.875027 0.1961 -0.0033 -0.0047
110 1 -0.0001 0.0001 -0.0001 -9.375032 5.625059 5.624958 0.1971 -0.0025 0.0042
111 1 0.0000 -0.0000 0.0000 -9.374996 5.624990 9.375012 0.2030 0.0017 -0.0027
112 1 -0.0001 -0.0002 -0.0000 -9.375038 5.624914 13.124993 0.2042 0.0036 -0.0016
113 1 0.0000 0.0001 -0.0000 -9.374996 9.375047 -13.125007 0.1977 -0.0039 0.0027
114 1 0.0000 0.0001 0.0000 -9.374993 9.375047 -9.375000 0.1986 -0.0074 0.0008
115 1 -0.0001 0.0001 0.0000 -9.375058 9.375047 -5.624976 0.2046 -0.0036 0.0019
116 1 -0.0001 -0.0000 0.0002 -9.375029 9.374991 -1.874914 0.2018 0.0028 -0.0029
117 1 -0.0001 -0.0000 0.0001 -9.375034 9.374980 1.875040 0.2001 0.0030 0.0022
118 1 0.0000 0.0000 0.0001 -9.374986 9.375008 5.625048 0.2005 0.0003 -0.0030
119 1 -0.0001 0.0000 -0.0001 -9.375070 9.375011 9.374959 0.2058 -0.0003 0.0069
120 1 0.0002 -0.0000 0.0001 -9.374924 9.374993 13.125061 0.1963 -0.0001 -0.0056
121 1 -0.0001 0.0000 0.0000 -9.375043 13.125017 -13.124978 0.2009 -0.0010 -0.0052
122 1 0.0001 -0.0000 -0.0001 -9.374963 13.124990 -9.375061 0.1934 0.0012 0.0047
123 1 0.0001 0.0000 0.0000 -9.374944 13.125020 -5.624999 0.1960 0.0020 -0.0054
124 1 -0.0001 0.0000 -0.0002 -9.375036 13.125019 -1.875084 0.2050 -0.0006 0.0060
125 1 -0.0001 -0.0001 0.0000 -9.375028 13.124961 1.875024 0.2014 0.0071 -0.0046
126 1 -0.0001 -0.0001 0.0000 -9.375061 13.124962 5.625010 0.2037 0.0054 -0.0026
127 1 -0.0001 0.0000 -0.0001 -9.375048 13.125015 9.374927 0.2027 -0.0016 0.0036
128 1 -0.0000 0.0002 -0.0001 -9.375018 13.125078 13.124957 0.2030 -0.0070 0.0007
129 1 -0.0001 -0.0001 0.0000 -5.625035 -13.125041 -13.124985 0.0035 -0.0007 -0.0038
130 1 -0.0000 0.0001 -0.0001 -5.625014 -13.124953 -9.375067 0.0021 -0.0018 0.0057
131 1 0.0001 -0.0000 0.0000 -5.624947 -13.125007 -5.624976 -0.0009 -0.0024 -0.0069
132 1 -0.0000 0.0000 -0.0002 -5.625002 -13.124979 -1.875084 0.0022 -0.0035 0.0055
133 1 0.0002 0.0001 -0.0001 -5.624924 -13.124954 1.874973 0.0008 -0.0021 -0.0033
134 1 -0.0001 -0.0001 -0.0001 -5.625026 -13.125030 5.624947 -0.0007 0.0033 0.0045
135 1 -0.0000 0.0000 0.0001 -5.625002 -13.124998 9.375056 0.0004 -0.0039 -0.0058
136 1 0.0001 0.0000 -0.0000 -5.624935 -13.124987 13.124991 -0.0035 -0.0031 0.0032
137 1 -0.0000 -0.0001 0.0000 -5.625024 -9.375053 -13.124981 -0.0001 0.0034 -0.0000
138 1 0.0000 0.0001 0.0001 -5.624977 -9.374966 -9.374958 0.0008 -0.0010 -0.0034
139 1 0.0002 -0.0001 -0.0001 -5.624907 -9.375074 -5.625038 0.0001 0.0029 0.0047
140 1 -0.0002 -0.0000 0.0000 -5.625086 -9.375005 -1.874981 0.0003 0.0010 -0.0044
141 1 0.0001 -0.0000 -0.0001 -5.624972 -9.375012 1.874949 0.0007 0.0029 0.0035
142 1 -0.0000 0.0001 -0.0000 -5.625007 -9.374943 5.624980 -0.0022 -0.0074 -0.0021
143 1 0.0000 -0.0000 -0.0001 -5.624978 -9.375011 9.374959 -0.0008 0.0023 0.0017
144 1 -0.0001 -0.0001 -0.0000 -5.625030 -9.375070 13.124990 0.0052 0.0024 0.0001
145 1 0.0001 0.0001 -0.0001 -5.624946 -5.624965 -13.125036 0.0012 -0.0050 -0.0004
146 1 -0.0001 -0.0001 -0.0000 -5.625049 -5.625027 -9.375018 0.0071 0.0033 -0.0031
147 1 -0.0000 -0.0001 -0.0002 -5.625017 -5.625043 -5.625079 -0.0027 0.0010 0.0039
148 1 -0.0001 -0.0000 -0.0000 -5.625038 -5.625001 -1.875018 0.0048 -0.0017 -0.0028
149 1 -0.0000 0.0000 -0.0001 -5.625015 -5.624990 1.874973 -0.0015 -0.0011 0.0014
150 1 0.0001 -0.0001 0.0000 -5.624945 -5.625069 5.625010 -0.0066 0.0064 -0.0018
151 1 -0.0000 0.0001 -0.0000 -5.625015 -5.624954 9.374987 0.0034 -0.0019 -0.0006
152 1 -0.0001 -0.0002 -0.0001 -5.625033 -5.625076 13.124950 -0.0011 0.0001 0.0013
153 1 -0.0000 -0.0001 0.0000 -5.625017 -1.875029 -13.124991 0.0027 0.0051 -0.0018
154 1 -0.0000 -0.0000 0.0000 -5.625019 -1.875002 -9.374981 0.0035 0.0004 -0.0019
155 1 0.0001 0.0001 -0.0000 -5.624971 -1.874973 -5.625018 0.0004 -0.0005 0.0019
156 1 0.0000 -0.0001 -0.0000 -5.624981 -1.875046 -1.875000 0.0000 0.0031 0.0039
157 1 0.0000 -0.0000 0.0002 -5.624993 -1.875005 1.875122 -0.0010 0.0019 -0.0082
158 1 0.0001 -0.0000 -0.0000 -5.624965 -1.875004 5.624992 -0.0068 -0.0023 0.0059
159 1 -0.0000 0.0001 0.0000 -5.625018 -1.874964 9.375022 0.0024 -0.0021 -0.0036
160 1 -0.0001 -0.0001 -0.0001 -5.625041 -1.875054 13.124954 0.0023 -0.0005 0.0045
161 1 0.0001 0.0001 0.0001 -5.624937 1.875046 -13.124930 -0.0093 -0.0043 -0.0039
162 1 0.0001 0.0001 0.0002 -5.624965 1.875042 -9.374921 -0.0038 -0.0017 -0.0013
163 1 0.0001 0.0001 0.0000 -5.624964 1.875072 -5.624979 -0.0009 -0.0035 0.0015
164 1 -0.0000 0.0000 -0.0000 -5.625010 1.875009 -1.875003 0.0002 -0.0027 0.0033
165 1 -0.0001 0.0001 0.0001 -5.625030 1.875031 1.875057 0.0013 -0.0011 -0.0049
166 1 -0.0001 0.0000 -0.0001 -5.625034 1.875002 5.624971 0.0009 0.0017 0.0069
167 1 0.0001 -0.0001 0.0002 -5.624960 1.874955 9.375078 -0.0044 0.0059 -0.0084
168 1 0.0001 -0.0001 -0.0001 -5.624966 1.874967 13.124939 -0.0027 0.0033 0.0094
169 1 -0.0000 -0.0000 0.0001 -5.625011 5.624993 -13.124953 -0.0025 0.0026 -0.0049
170 1 0.0000 0.0001 -0.0002 -5.624981 5.625034 -9.375083 0.0000 -0.0020 0.0094
171 1 -0.0002 0.0000 0.0001 -5.625075 5.625014 -5.624935 0.0057 0.0035 -0.0102
172 1 -0.0000 -0.0000 -0.0002 -5.625021 5.624991 -1.875078 0.0020 0.0022 0.0054
173 1 0.0000 0.0001 -0.0001 -5.624986 5.625035 1.874941 0.0024 -0.0003 0.0011
174 1 -0.0002 0.0001 0.0000 -5.625090 5.625055 5.625008 0.0077 -0.0061 -0.0009
175 1 0.0002 0.0001 0.0001 -5.624897 5.625043 9.375042 -0.0086 -0.0080 -0.0012
176 1 0.0001 0.0002 0.0001 -5.624957 5.625081 13.125034 -0.0033 -0.0040 0.0011
177 1 -0.0001 0.0000 0.0001 -5.625069 9.375015 -13.124950 0.0045 -0.0028 -0.0047
178 1 -0.0001 -0.0001 -0.0000 -5.625057 9.374965 -9.375011 0.0040 0.0030 0.0012
179 1 0.0001 0.0001 -0.0001 -5.624951 9.375047 -5.625036 -0.0043 -0.0025 0.0015
180 1 -0.0001 0.0001 -0.0000 -5.625025 9.375040 -1.875011 0.0014 -0.0051 0.0016
181 1 -0.0001 0.0001 0.0001 -5.625030 9.375028 1.875062 -0.0002 0.0011 -0.0053
182 1 -0.0000 -0.0001 -0.0001 -5.625019 9.374937 5.624975 0.0037 0.0056 0.0020
183 1 0.0000 -0.0002 -0.0001 -5.624977 9.374913 9.374951 -0.0053 0.0038 0.0011
184 1 -0.0000 0.0001 -0.0001 -5.625006 9.375066 13.124974 0.0004 -0.0009 0.0013
185 1 -0.0001 -0.0001 -0.0000 -5.625043 13.124963 -13.125024 -0.0004 0.0014 0.0052
186 1 -0.0001 -0.0000 0.0001 -5.625056 13.124993 -9.374940 0.0047 0.0011 -0.0052
187 1 -0.0000 0.0000 -0.0000 -5.625010 13.125003 -5.625018 0.0012 0.0014 0.0026
188 1 0.0001 -0.0001 -0.0000 -5.624940 13.124947 -1.875022 -0.0033 0.0057 0.0026
189 1 -0.0000 0.0001 0.0001 -5.625015 13.125042 1.875042 -0.0012 0.0002 -0.0021
190 1 -0.0001 -0.0000 0.0001 -5.625052 13.124985 5.625042 0.0011 -0.0024 0.0029
191 1 -0.0001 -0.0002 0.0002 -5.625051 13.124904 9.375106 0.0013 0.0029 -0.0035
192 1 -0.0000 0.0000 0.0001 -5.625023 13.125003 13.125045 0.0014 0.0030 0.0005
193 1 0.0000 -0.0000 -0.0001 -1.874983 -13.125017 -13.125033 -0.0512 0.0234 0.0007
194 1 0.0001 -0.0001 -0.0000 -1.874959 -13.125059 -9.375007 -0.0502 0.0258 -0.0005
195 1 0.0000 -0.0001 0.0000 -1.875000 -13.125030 -5.624989 -0.0454 0.0250 -0.0038
196 1 0.0000 -0.0000 -0.0001 -1.874994 -13.125022 -1.875071 -0.0491 0.0255 0.0047
197 1 0.0001 -0.0000 -0.0000 -1.874942 -13.125008 1.874992 -0.0485 0.0210 -0.0048
198 1 -0.0000 0.0000 -0.0001 -1.875023 -13.124996 5.624925 -0.0472 0.0247 0.0034
199 1 -0.0000 -0.0000 -0.0001 -1.875004 -13.125022 9.374966 -0.0470 0.0311 -0.0014
200 1 -0.0001 -0.0001 -0.0000 -1.875025 -13.125029 13.124975 -0.0419 0.0222 -0.0006
201 1 0.0001 -0.0001 0.0001 -1.874946 -9.375058 -13.124943 -0.0049 0.0013 -0.0030
202 1 0.0001 0.0000 0.0001 -1.874969 -9.374995 -9.374966 0.0012 -0.0067 0.0030
203 1 0.0002 -0.0001 0.0002 -1.874910 -9.375062 -5.624915 -0.0001 0.0036 -0.0031
204 1 -0.0001 0.0001 0.0001 -1.875039 -9.374966 -1.874965 -0.0025 -0.0022 0.0007
205 1 0.0000 -0.0001 -0.0000 -1.874975 -9.375068 1.874996 -0.0007 0.0028 0.0023
206 1 -0.0001 0.0000 0.0000 -1.875029 -9.374976 5.625013 0.0041 -0.0038 -0.0030
207 1 -0.0001 0.0002 -0.0001 -1.875034 -9.374921 9.374937 0.0026 -0.0045 0.0039
208 1 0.0001 -0.0001 -0.0000 -1.874943 -9.375045 13.124980 -0.0019 0.0029 0.0009
209 1 0.0000 -0.0001 0.0000 -1.874987 -5.625055 -13.124994 0.0019 0.0002 0.0013
210 1 0.0001 -0.0002 -0.0001 -1.874947 -5.625121 -9.375035 -0.0070 0.0116 0.0024
211 1 -0.0001 0.0000 0.0000 -1.875036 -5.624982 -5.624998 0.0031 -0.0033 0.0009
212 1 -0.0000 0.0000 0.0001 -1.875024 -5.624985 -1.874931 0.0001 -0.0004 -0.0061
213 1 -0.0001 -0.0001 -0.0001 -1.875058 -5.625033 1.874949 0.0015 0.0007 0.0030
214 1 -0.0002 -0.0001 -0.0002 -1.875098 -5.625060 5.624923 0.0080 0.0056 0.0026
215 1 0.0001 0.0001 -0.0000 -1.874939 -5.624960 9.374987 -0.0044 0.0004 0.0010
216 1 -0.0000 0.0000 0.0002 -1.875021 -5.624978 13.125081 -0.0011 -0.0040 -0.0052
217 1 -0.0001 -0.0001 0.0001 -1.875054 -1.875037 -13.124938 0.0034 0.0016 -0.0048
218 1 0.0002 0.0002 0.0001 -1.874915 -1.874907 -9.374968 -0.0068 -0.0094 0.0024
219 1 -0.0000 -0.0000 0.0001 -1.875018 -1.875002 -5.624943 0.0056 0.0028 -0.0025
220 1 -0.0000 -0.0000 -0.0000 -1.875008 -1.875024 -1.875006 0.0015 0.0017 0.0019
221 1 -0.0001 0.0001 -0.0000 -1.875049 -1.874974 1.874983 0.0023 -0.0044 0.0006
222 1 -0.0002 0.0000 -0.0000 -1.875118 -1.874981 5.624994 0.0112 -0.0058 0.0017
223 1 0.0001 -0.0000 0.0001 -1.874959 -1.875002 9.375049 -0.0028 0.0001 -0.0053
224 1 -0.0001 -0.0001 -0.0001 -1.875027 -1.875036 13.124946 0.0009 0.0021 0.0076
225 1 -0.0002 0.0001 0.0000 -1.875081 1.875038 -13.124996 -0.0029 -0.0090 0.0035
226 1 -0.0001 0.0001 -0.0000 -1.875057 1.875025 -9.375020 0.0053 0.0040 -0.0009
227 1 -0.0000 0.0001 -0.0001 -1.875003 1.875060 -5.625057 -0.0084 -0.0111 -0.0046
228 1 -0.0000 -0.0000 -0.0001 -1.875015 1.874988 -1.875040 -0.0338 -0.0203 -0.0062
229 1 -0.0000 -0.0001 -0.0000 -1.875013 1.874957 1.874980 -0.0475 -0.0210 0.0002
230 1 -0.0001 -0.0001 0.0000 -1.875052 1.874936 5.625007 -0.0437 -0.0194 -0.0009
231 1 -0.0001 -0.0001 0.0000 -1.875029 1.874959 9.375002 -0.0448 -0.0190 -0.0012
232 1 -0.0000 -0.0001 -0.0001 -1.875014 1.874968 13.124969 -0.0296 -0.0143 0.0079
233 1 -0.0001 0.0000 0.0000 -1.875061 5.625019 -13.125000 -0.0688 -0.0255 0.0119
234 1 -0.0001 0.0001 -0.0001 -1.875033 5.625068 -9.375066 -0.0437 -0.0251 0.0055
235 1 0.0001 -0.0001 0.0001 -1.874966 5.624970 -5.624969 -0.0768 -0.0186 -0.0164
236 1 0.0001 -0.0001 -0.0000 -1.874968 5.624938 -1.875001 -0.1327 -0.0204 -0.0122
237 1 -0.0000 -0.0001 -0.0001 -1.875005 5.624963 1.874954 -0.1531 -0.0227 0.0010
238 1 0.0002 -0.0000 -0.0001 -1.874910 5.624985 5.624941 -0.1621 -0.0232 0.0025
239 1 -0.0001 0.0001 0.0000 -1.875055 5.625045 9.375005 -0.1482 -0.0316 -0.0000
240 1 0.0001 0.0001 0.0001 -1.874970 5.625072 13.125063 -0.1303 -0.0302 0.0078
241 1 -0.0000 -0.0001 -0.0000 -1.875011 9.374954 -13.125022 -0.1643 -0.0139 0.0106
242 1 -0.0000 0.0001 0.0000 -1.875003 9.375053 -9.374977 -0.1585 -0.0264 -0.0054
243 1 0.0000 0.0001 -0.0002 -1.874982 9.375030 -5.625078 -0.1640 -0.0195 0.0013
244 1 0.0000 -0.0000 0.0001 -1.874975 9.374993 -1.874965 -0.1909 -0.0088 -0.0119
245 1 -0.0000 0.0000 -0.0001 -1.875023 9.375004 1.874971 -0.2014 -0.0022 0.0028
246 1 0.0001 0.0001 -0.0000 -1.874954 9.375053 5.624991 -0.2038 -0.0035 -0.0014
247 1 -0.0001 -0.0002 -0.0001 -1.875031 9.374907 9.374972 -0.2002 0.0107 0.0044
248 1 -0.0002 -0.0000 0.0002 -1.875080 9.374986 13.125075 -0.1845 -0.0037 -0.0010
249 1 -0.0001 0.0000 0.0001 -1.875051 13.125011 -13.124963 -0.1518 0.0210 -0.0040
250 1 -0.0000 -0.0001 0.0001 -1.875015 13.124951 -9.374949 -0.1521 0.0265 -0.0027
251 1 -0.0001 0.0001 -0.0000 -1.875036 13.125040 -5.625018 -0.1522 0.0212 0.0029
252 1 0.0001 -0.0001 -0.0000 -1.874952 13.124972 -1.875007 -0.1556 0.0244 0.0008
253 1 -0.0001 -0.0000 0.0001 -1.875031 13.124990 1.875027 -0.1525 0.0242 -0.0031
254 1 -0.0000 0.0000 -0.0001 -1.875005 13.125002 5.624969 -0.1545 0.0256 0.0049
255 1 -0.0000 0.0002 0.0001 -1.875009 13.125079 9.375054 -0.1527 0.0146 -0.0083
256 1 0.0000 -0.0001 -0.0002 -1.874987 13.124955 13.124904 -0.1555 0.0248 0.0094
257 1 -0.0001 -0.0001 0.0000 1.874962 -13.125041 -13.124979 -0.7663 0.5988 -0.0016
258 1 0.0000 0.0001 0.0001 1.875009 -13.124939 -9.374949 -0.7679 0.5899 -0.0013
259 1 0.0000 0.0000 0.0001 1.875005 -13.125000 -5.624966 -0.7723 0.5969 0.0009
260 1 -0.0001 -0.0001 0.0001 1.874969 -13.125053 -1.874958 -0.7682 0.6007 -0.0030
261 1 -0.0000 0.0002 -0.0001 1.874992 -13.124886 1.874959 -0.7667 0.5862 0.0030
262 1 -0.0000 -0.0002 -0.0001 1.874991 -13.125103 5.624963 -0.7713 0.6054 0.0008
263 1 -0.0000 -0.0000 -0.0000 1.875000 -13.125004 9.374995 -0.7731 0.5955 -0.0033
264 1 0.0001 0.0000 -0.0001 1.875044 -13.124989 13.124939 -0.7731 0.5936 0.0045
265 1 -0.0000 0.0001 -0.0002 1.874991 -9.374966 -13.125083 -0.2217 0.0430 0.0069
266 1 0.0002 -0.0001 0.0000 1.875079 -9.375053 -9.374989 -0.2277 0.0536 -0.0010
267 1 0.0001 0.0000 0.0002 1.875059 -9.374982 -5.624918 -0.2256 0.0462 -0.0040
268 1 -0.0001 0.0000 0.0001 1.874957 -9.374999 -1.874961 -0.2232 0.0430 -0.0002
269 1 -0.0000 -0.0000 -0.0000 1.874992 -9.375009 1.874977 -0.2243 0.0507 0.0018
270 1 0.0001 0.0001 -0.0000 1.875062 -9.374938 5.624976 -0.2298 0.0390 0.0019
271 1 -0.0000 0.0001 0.0001 1.874994 -9.374971 9.375033 -0.2263 0.0441 -0.0016
272 1 0.0002 -0.0001 0.0001 1.875076 -9.375070 13.125032 -0.2266 0.0493 -0.0037
273 1 0.0000 -0.0001 -0.0001 1.875019 -5.625026 -13.125054 -0.2035 0.0047 0.0028
274 1 -0.0001 0.0000 0.0000 1.874960 -5.624984 -9.374991 -0.1958 -0.0048 0.0002
275 1 0.0001 -0.0000 0.0001 1.875043 -5.625006 -5.624926 -0.2059 0.0029 -0.0070
276 1 -0.0000 -0.0001 -0.0001 1.874989 -5.625063 -1.875065 -0.2018 0.0044 0.0093
277 1 -0.0001 -0.0001 0.0001 1.874946 -5.625040 1.875068 -0.2001 -0.0003 -0.0073
278 1 -0.0000 -0.0000 -0.0000 1.874982 -5.625012 5.624980 -0.2048 0.0010 0.0061
279 1 -0.0000 -0.0001 0.0001 1.874995 -5.625034 9.375054 -0.1994 0.0024 -0.0053
280 1 -0.0001 -0.0002 -0.0001 1.874973 -5.625082 13.124967 -0.1992 0.0040 0.0020
281 1 0.0000 0.0001 -0.0001 1.875015 -1.874960 -13.125042 -0.2100 -0.0133 0.0076
282 1 -0.0000 -0.0001 0.0000 1.874981 -1.875053 -9.374976 -0.1966 0.0055 -0.0035
283 1 0.0002 0.0001 -0.0000 1.875091 -1.874951 -5.625007 -0.2127 -0.0163 -0.0054
284 1 0.0000 0.0000 -0.0000 1.875002 -1.874994 -1.875015 -0.2180 -0.0379 -0.0062
285 1 -0.0001 -0.0001 -0.0001 1.874959 -1.875073 1.874973 -0.2211 -0.0466 0.0016
286 1 0.0001 -0.0001 0.0000 1.875053 -1.875060 5.625015 -0.2305 -0.0423 -0.0029
287 1 0.0000 -0.0000 -0.0001 1.875009 -1.875024 9.374974 -0.2232 -0.0492 0.0001
288 1 0.0000 0.0001 -0.0001 1.875017 -1.874967 13.124948 -0.2190 -0.0413 0.0067
289 1 0.0000 0.0001 -0.0000 1.875022 1.875047 -13.125022 -0.3171 -0.1429 0.1049
290 1 0.0000 0.0001 0.0001 1.875010 1.875051 -9.374966 -0.2371 -0.0660 -0.0031
291 1 0.0001 -0.0001 -0.0000 1.875046 1.874967 -5.625003 -0.3199 -0.1351 -0.0950
292 1 0.0001 0.0000 0.0001 1.875034 1.875006 -1.874928 -0.6812 -0.4984 -0.1052
293 1 -0.0000 -0.0001 -0.0001 1.874997 1.874929 1.874959 -0.7638 -0.5865 -0.0079
294 1 0.0001 0.0001 -0.0001 1.875039 1.875041 5.624952 -0.7773 -0.5991 -0.0000
295 1 -0.0000 -0.0001 -0.0001 1.874976 1.874944 9.374953 -0.7651 -0.5876 0.0162
296 1 0.0002 -0.0000 0.0002 1.875102 1.874989 13.125080 -0.6829 -0.5017 0.0915
297 1 -0.0001 -0.0000 -0.0000 1.874971 5.624980 -13.125017 -1.1454 -0.5944 0.3883
298 1 0.0000 -0.0001 0.0000 1.875017 5.624952 -9.374992 -0.7997 -0.5898 0.0007
299 1 -0.0000 0.0001 0.0001 1.874988 5.625043 -5.624940 -1.1439 -0.6000 -0.3922
300 1 -0.0000 0.0002 -0.0002 1.874982 5.625086 -1.875085 6.0014 -0.6007 -0.3782
301 1 -0.0000 0.0000 -0.0000 1.874986 5.625023 1.874981 5.6389 -0.5986 -0.0283
302 1 0.0000 0.0000 -0.0001 1.875003 5.625016 5.624928 5.6300 -0.5973 0.0022
303 1 -0.0001 -0.0001 -0.0001 1.874940 5.624971 9.374946 5.6386 -0.5960 0.0269
304 1 -0.0001 -0.0001 0.0001 1.874969 5.624951 13.125049 6.0019 -0.5948 0.3790
305 1 0.0001 -0.0001 0.0001 1.875053 9.374929 -13.124952 5.5554 -0.4505 0.1026
306 1 -0.0002 0.0000 0.0002 1.874908 9.375012 -9.374892 5.6409 -0.5379 -0.0043
307 1 0.0000 -0.0001 0.0001 1.875004 9.374973 -5.624965 5.5578 -0.4501 -0.0988
308 1 0.0000 -0.0000 -0.0001 1.875017 9.374997 -1.875037 5.1964 -0.0876 -0.0965
309 1 -0.0001 0.0000 -0.0001 1.874966 9.375021 1.874964 5.1085 -0.0077 -0.0081
310 1 0.0000 -0.0001 0.0001 1.875014 9.374926 5.625063 5.1040 0.0068 -0.0065
311 1 -0.0001 -0.0000 -0.0001 1.874927 9.374978 9.374972 5.1094 -0.0060 0.0186
312 1 -0.0000 -0.0001 0.0001 1.874985 9.374930 13.125073 5.1934 -0.0887 0.0948
313 1 -0.0000 -0.0000 0.0001 1.874991 13.124997 -13.124972 5.6427 0.5553 0.0037
314 1 0.0001 0.0000 0.0001 1.875056 13.125019 -9.374969 5.6483 0.5492 0.0003
315 1 -0.0000 0.0001 0.0001 1.874978 13.125032 -5.624953 5.6436 0.5560 -0.0072
316 1 -0.0001 0.0001 0.0000 1.874955 13.125062 -1.874979 5.6356 0.5773 -0.0071
317 1 -0.0000 -0.0001 -0.0001 1.874983 13.124962 1.874956 5.6260 0.6025 0.0053
318 1 0.0000 0.0001 0.0001 1.875005 13.125037 5.625040 5.6262 0.5861 -0.0032
319 1 0.0001 -0.0001 0.0001 1.875045 13.124971 9.375029 5.6252 0.5959 -0.0017
320 1 -0.0000 0.0001 -0.0001 1.874978 13.125041 13.124969 5.6334 0.5787 0.0101
321 1 0.0002 -0.0000 0.0001 5.625074 -13.125014 -13.124974 5.0512 -6.2897 -0.0007
322 1 0.0002 0.0001 -0.0000 5.625091 -13.124937 -9.375001 5.0526 -6.2946 0.0032
323 1 0.0000 0.0001 0.0001 5.625002 -13.124962 -5.624939 5.0551 -6.2940 -0.0047
324 1 0.0001 -0.0000 -0.0000 5.625036 -13.125015 -1.875004 5.0528 -6.2946 0.0020
325 1 0.0001 0.0001 -0.0000 5.625068 -13.124966 1.874985 5.0528 -6.2936 0.0016
326 1 0.0001 -0.0001 0.0000 5.625030 -13.125058 5.625020 5.0539 -6.2907 -0.0013
327 1 -0.0000 -0.0000 0.0000 5.624977 -13.125012 9.375016 5.0557 -6.2934 0.0011
328 1 0.0002 -0.0000 0.0001 5.625073 -13.125013 13.125035 5.0544 -6.2926 -0.0008
329 1 0.0000 0.0001 0.0000 5.625006 -9.374930 -13.124977 5.0546 0.0995 -0.0009
330 1 0.0000 0.0000 0.0000 5.625016 -9.374995 -9.374998 5.0575 0.1097 0.0041
331 1 -0.0000 -0.0000 0.0002 5.624979 -9.375002 -5.624913 5.0580 0.1072 -0.0092
332 1 -0.0000 -0.0001 -0.0002 5.624992 -9.375061 -1.875085 5.0539 0.1089 0.0108
333 1 -0.0001 0.0000 0.0001 5.624960 -9.374992 1.875055 5.0560 0.1075 -0.0055
334 1 -0.0000 0.0000 0.0001 5.624985 -9.374997 5.625035 5.0581 0.1054 -0.0023
335 1 -0.0000 -0.0001 -0.0001 5.624974 -9.375032 9.374944 5.0558 0.1083 0.0057
336 1 0.0000 -0.0000 0.0000 5.625012 -9.375008 13.125015 5.0575 0.1067 -0.0023
337 1 -0.0001 -0.0001 0.0001 5.624936 -5.625030 -13.124962 5.0577 0.0030 -0.0045
338 1 0.0000 0.0001 -0.0001 5.625010 -5.624948 -9.375055 5.0536 -0.0012 0.0044
339 1 -0.0000 -0.0000 -0.0000 5.624971 -5.625006 -5.625015 5.0576 0.0023 -0.0008
340 1 -0.0001 -0.0000 0.0000 5.624967 -5.625013 -1.874986 5.0558 -0.0029 -0.0019
341 1 -0.0001 0.0000 -0.0000 5.624970 -5.624979 1.874985 5.0542 -0.0019 0.0010
342 1 -0.0001 0.0001 -0.0000 5.624952 -5.624947 5.624995 5.0559 -0.0035 -0.0034
343 1 -0.0001 0.0000 -0.0002 5.624959 -5.624979 9.374920 5.0563 -0.0020 0.0050
344 1 0.0000 0.0000 -0.0000 5.625016 -5.624980 13.124998 5.0538 -0.0018 -0.0013
345 1 -0.0000 -0.0001 -0.0000 5.624984 -1.875041 -13.125022 5.0561 -0.0241 0.0133
346 1 -0.0000 0.0001 0.0000 5.624988 -1.874945 -9.374990 5.0547 -0.0061 0.0001
347 1 0.0000 0.0001 0.0001 5.625009 -1.874946 -5.624960 5.0582 -0.0313 -0.0138
348 1 0.0001 -0.0001 0.0000 5.625027 -1.875044 -1.874985 5.0544 -0.0828 -0.0098
349 1 0.0001 -0.0000 0.0001 5.625061 -1.875023 1.875050 5.0517 -0.1023 -0.0004
350 1 0.0001 0.0000 0.0001 5.625040 -1.874998 5.625064 5.0560 -0.1007 -0.0001
351 1 0.0000 0.0000 0.0001 5.625004 -1.874983 9.375062 5.0553 -0.1061 -0.0022
352 1 0.0001 -0.0000 -0.0000 5.625046 -1.875010 13.124982 5.0543 -0.0796 0.0149
353 1 0.0003 -0.0001 -0.0001 5.625134 1.874960 -13.125035 5.0519 -0.4789 0.3867
354 1 0.0001 -0.0002 -0.0000 5.625046 1.874880 -9.375003 5.0540 -0.1183 0.0001
355 1 0.0001 -0.0002 0.0001 5.625023 1.874909 -5.624962 5.0561 -0.4712 -0.3874
356 1 0.0000 -0.0002 0.0000 5.625009 1.874909 -1.874982 5.0559 6.6672 -0.3859
357 1 0.0002 0.0001 -0.0000 5.625071 1.875027 1.874985 5.0528 6.3033 -0.0216
358 1 -0.0000 0.0002 0.0000 5.624978 1.875085 5.625020 5.0571 6.2901 -0.0036
359 1 0.0000 0.0000 -0.0001 5.625016 1.875000 9.374955 5.0537 6.3052 0.0270
360 1 0.0002 0.0000 -0.0000 5.625079 1.875019 13.124977 5.0562 6.6651 0.3838
361 1 0.0000 -0.0000 0.0000 5.625011 5.624973 -13.124991 5.0535 6.2921 -7.0845
362 1 -0.0001 0.0001 0.0002 5.624957 5.625035 -9.374916 5.0571 6.2874 -0.0056
363 1 -0.0000 -0.0000 0.0000 5.624985 5.624983 -5.625001 5.0552 6.2898 7.0903
ITEM: TIMESTEP
10
ITEM: NUMBER OF ATOMS
363
ITEM: BOX BOUNDS pp pp pp
-15.000000 15.000000
-15.000000 15.000000
-15.000000 15.000000
ITEM: ATOMS id type xu yu zu vx vy vz fx fy fz
1 1 nan nan nan nan nan nan 0.0000 0.0000 0.0000
2 1 nan nan nan nan nan nan 0.0000 0.0000 0.0000
3 1 nan nan nan nan nan nan 0.0000 0.0000 0.0000
4 1 nan nan nan nan nan nan 0.0000 0.0000 0.0000
5 1 nan nan nan nan nan nan 0.0000 0.0000 0.0000
6 1 nan nan nan nan nan nan 0.0000 0.0000 0.0000
7 1 nan nan nan nan nan nan 0.0000 0.0000 0.0000
8 1 nan nan nan nan nan nan 0.0000 0.0000 0.0000
9 1 nan nan nan nan nan nan 0.0000 0.0000 0.0000
10 1 nan nan nan nan nan nan 0.0000 0.0000 0.0000