ITEM: TIMESTEP
0
ITEM: NUMBER OF ATOMS
362
ITEM: BOX BOUNDS pp pp pp
-15.000000 15.000000
-15.000000 15.000000
-15.000000 15.000000
ITEM: ATOMS id type xu yu zu vx vy vz fx fy fz
1 1 -13.1249 -13.1250 -13.1249 0.000067 0.000014 0.000073 -4.9829 0.0093 0.0004
2 1 -13.1250 -13.1250 -9.3749 -0.000054 0.000033 0.000141 -4.9876 0.0125 -0.0125
3 1 -13.1249 -13.1252 -5.6253 0.000088 -0.000209 -0.000274 -4.9893 0.0152 0.0329
4 1 -13.1249 -13.1250 -1.8746 0.000064 -0.000026 0.000365 -4.9835 -0.0013 -0.0306
5 1 -13.1250 -13.1250 1.8750 0.000007 -0.000033 -0.000012 -4.9884 0.0031 0.0178
6 1 -13.1251 -13.1250 5.6251 -0.000146 0.000000 0.000114 -4.9891 0.0106 -0.0084
7 1 -13.1250 -13.1251 9.3749 0.000002 -0.000087 -0.000061 -4.9880 0.0160 0.0062
8 1 -13.1252 -13.1251 13.1249 -0.000181 -0.000133 -0.000060 -4.9826 -0.0011 0.0025
9 1 -13.1248 -9.3748 -13.1248 0.000187 0.000194 0.000190 -4.9950 -0.0033 -0.0154
10 1 -13.1248 -9.3749 -9.3751 0.000160 0.000148 -0.000122 -5.0012 0.0029 0.0001
11 1 -13.1251 -9.3751 -5.6253 -0.000157 -0.000063 -0.000280 -4.9868 -0.0023 0.0095
12 1 -13.1250 -9.3753 -1.8750 -0.000049 -0.000262 -0.000012 -4.9887 0.0089 -0.0115
13 1 -13.1251 -9.3749 1.8750 -0.000145 0.000111 -0.000044 -4.9914 -0.0079 0.0062
14 1 -13.1249 -9.3750 5.6251 0.000069 -0.000005 0.000140 -4.9902 0.0025 -0.0121
15 1 -13.1249 -9.3748 9.3749 0.000079 0.000174 -0.000102 -4.9958 -0.0117 0.0081
16 1 -13.1250 -9.3752 13.1249 -0.000009 -0.000231 -0.000060 -5.0052 0.0065 0.0055
17 1 -13.1251 -5.6249 -13.1251 -0.000071 0.000062 -0.000069 -5.0023 0.0039 -0.0004
18 1 -13.1251 -5.6249 -9.3750 -0.000131 0.000144 0.000003 -4.9928 -0.0021 -0.0052
19 1 -13.1251 -5.6250 -5.6250 -0.000137 -0.000021 -0.000022 -4.9974 -0.0060 -0.0031
20 1 -13.1251 -5.6252 -1.8751 -0.000110 -0.000163 -0.000120 -4.9931 0.0019 0.0048
21 1 -13.1250 -5.6252 1.8750 -0.000020 -0.000158 0.000038 -4.9907 0.0062 -0.0057
22 1 -13.1249 -5.6250 5.6250 0.000104 0.000003 0.000001 -4.9913 0.0001 -0.0008
23 1 -13.1250 -5.6251 9.3750 -0.000045 -0.000080 -0.000034 -4.9884 0.0164 0.0008
24 1 -13.1251 -5.6250 13.1250 -0.000101 -0.000033 -0.000046 -4.9941 -0.0054 -0.0013
25 1 -13.1252 -1.8751 -13.1250 -0.000223 -0.000065 0.000024 -4.9941 0.0034 0.0001
26 1 -13.1251 -1.8751 -9.3750 -0.000122 -0.000055 0.000007 -4.9927 0.0064 0.0035
27 1 -13.1250 -1.8751 -5.6249 -0.000020 -0.000141 0.000082 -4.9991 0.0111 -0.0115
28 1 -13.1251 -1.8749 -1.8752 -0.000081 0.000114 -0.000244 -4.9919 -0.0090 0.0153
29 1 -13.1249 -1.8751 1.8750 0.000128 -0.000142 0.000023 -4.9941 -0.0075 -0.0039
30 1 -13.1253 -1.8750 5.6252 -0.000312 -0.000040 0.000161 -4.9893 -0.0079 -0.0099
31 1 -13.1249 -1.8748 9.3749 0.000115 0.000160 -0.000101 -4.9932 -0.0107 0.0106
32 1 -13.1250 -1.8750 13.1250 -0.000028 0.000045 0.000023 -4.9900 -0.0069 -0.0029
33 1 -13.1251 1.8750 -13.1250 -0.000141 0.000017 0.000021 -4.9866 -0.0126 -0.0041
34 1 -13.1250 1.8750 -9.3751 -0.000064 0.000014 -0.000055 -4.9862 -0.0100 -0.0022
35 1 -13.1250 1.8752 -5.6251 0.000006 0.000229 -0.000058 -4.9815 -0.0214 0.0103
36 1 -13.1251 1.8751 -1.8747 -0.000070 0.000077 0.000302 -4.9933 -0.0030 -0.0127
37 1 -13.1249 1.8749 1.8751 0.000047 -0.000141 0.000126 -4.9930 -0.0062 0.0049
38 1 -13.1251 1.8748 5.6249 -0.000102 -0.000182 -0.000055 -4.9845 -0.0015 0.0097
39 1 -13.1250 1.8751 9.3751 0.000013 0.000063 0.000079 -4.9849 0.0030 -0.0053
40 1 -13.1251 1.8749 13.1250 -0.000104 -0.000051 -0.000026 -4.9771 0.0084 0.0067
41 1 -13.1248 5.6248 -13.1249 0.000156 -0.000166 0.000076 -4.9842 0.0057 -0.0002
42 1 -13.1250 5.6249 -9.3750 -0.000026 -0.000100 -0.000041 -4.9869 0.0018 0.0099
43 1 -13.1251 5.6250 -5.6248 -0.000110 -0.000023 0.000185 -4.9886 0.0050 -0.0140
44 1 -13.1252 5.6250 -1.8751 -0.000245 -0.000013 -0.000078 -4.9748 -0.0043 0.0076
45 1 -13.1252 5.6249 1.8750 -0.000180 -0.000055 -0.000009 -4.9792 -0.0023 -0.0038
46 1 -13.1251 5.6249 5.6250 -0.000126 -0.000083 -0.000027 -4.9787 -0.0082 0.0029
47 1 -13.1252 5.6251 9.3750 -0.000197 0.000128 0.000046 -4.9771 -0.0094 0.0004
48 1 -13.1252 5.6252 13.1251 -0.000209 0.000241 0.000071 -4.9797 -0.0252 0.0029
49 1 -13.1251 9.3751 -13.1252 -0.000100 0.000065 -0.000174 -4.9690 -0.0114 -0.0008
50 1 -13.1251 9.3750 -9.3751 -0.000108 0.000044 -0.000088 -4.9805 -0.0049 -0.0068
51 1 -13.1249 9.3750 -5.6251 0.000044 -0.000001 -0.000051 -4.9748 0.0022 0.0001
52 1 -13.1249 9.3749 -1.8750 0.000035 -0.000097 0.000040 -4.9688 0.0056 0.0040
53 1 -13.1251 9.3751 1.8752 -0.000077 0.000120 0.000222 -4.9630 -0.0146 -0.0083
54 1 -13.1249 9.3750 5.6250 0.000084 0.000001 0.000007 -4.9588 0.0028 0.0136
55 1 -13.1249 9.3750 9.3751 0.000062 -0.000013 0.000128 -4.9683 0.0070 -0.0092
56 1 -13.1251 9.3748 13.1249 -0.000083 -0.000222 -0.000146 -4.9784 0.0147 0.0047
57 1 -13.1249 13.1249 -13.1249 0.000095 -0.000065 0.000098 -4.9757 0.0103 0.0078
58 1 -13.1251 13.1250 -9.3748 -0.000078 0.000042 0.000217 -4.9830 0.0066 -0.0039
59 1 -13.1250 13.1251 -5.6249 -0.000053 0.000095 0.000073 -4.9784 -0.0076 0.0089
60 1 -13.1250 13.1251 -1.8749 -0.000050 0.000065 0.000109 -4.9809 -0.0024 -0.0062
61 1 -13.1250 13.1248 1.8749 0.000024 -0.000209 -0.000082 -4.9724 0.0164 0.0105
62 1 -13.1250 13.1252 5.6251 -0.000062 0.000171 0.000084 -4.9757 -0.0023 -0.0091
63 1 -13.1251 13.1250 9.3749 -0.000103 0.000026 -0.000065 -4.9784 -0.0003 0.0104
64 1 -13.1251 13.1249 13.1251 -0.000098 -0.000091 0.000079 -4.9754 -0.0056 -0.0016
65 1 -9.3749 -13.1249 -13.1251 0.000081 0.000117 -0.000098 0.2752 -0.0078 0.0038
66 1 -9.3750 -13.1252 -9.3750 0.000015 -0.000206 0.000005 0.2746 0.0069 -0.0112
67 1 -9.3751 -13.1249 -5.6251 -0.000112 0.000069 -0.000120 0.2864 0.0033 0.0041
68 1 -9.3749 -13.1250 -1.8750 0.000071 0.000035 -0.000009 0.2744 -0.0095 -0.0021
69 1 -9.3751 -13.1251 1.8751 -0.000109 -0.000075 0.000060 0.2873 -0.0001 -0.0001
70 1 -9.3751 -13.1246 5.6251 -0.000054 0.000395 0.000077 0.2757 -0.0106 0.0030
71 1 -9.3751 -13.1249 9.3751 -0.000111 0.000069 0.000091 0.2817 -0.0006 0.0008
72 1 -9.3749 -13.1250 13.1250 0.000120 -0.000027 -0.000012 0.2685 0.0092 -0.0015
73 1 -9.3751 -9.3751 -13.1251 -0.000074 -0.000072 -0.000134 0.2869 0.0006 0.0149
74 1 -9.3753 -9.3750 -9.3750 -0.000252 0.000017 -0.000014 0.2904 -0.0086 -0.0082
75 1 -9.3748 -9.3750 -5.6250 0.000193 0.000020 -0.000015 0.2654 0.0047 -0.0025
76 1 -9.3749 -9.3751 -1.8751 0.000116 -0.000143 -0.000087 0.2610 0.0152 0.0082
77 1 -9.3749 -9.3751 1.8752 0.000081 -0.000073 0.000217 0.2756 0.0009 -0.0082
78 1 -9.3750 -9.3749 5.6251 0.000041 0.000115 0.000096 0.2715 0.0137 0.0156
79 1 -9.3751 -9.3749 9.3753 -0.000104 0.000077 0.000280 0.2893 -0.0038 0.0019
80 1 -9.3753 -9.3749 13.1253 -0.000331 0.000130 0.000299 0.2963 0.0010 -0.0089
81 1 -9.3752 -5.6252 -13.1249 -0.000194 -0.000186 0.000082 0.2803 0.0005 0.0045
82 1 -9.3749 -5.6250 -9.3749 0.000094 -0.000041 0.000052 0.2740 0.0005 0.0033
83 1 -9.3750 -5.6250 -5.6250 -0.000039 0.000024 0.000041 0.2744 -0.0019 0.0020
84 1 -9.3749 -5.6248 -1.8749 0.000097 0.000210 0.000056 0.2759 -0.0144 0.0034
85 1 -9.3749 -5.6250 1.8751 0.000108 0.000006 0.000120 0.2758 0.0011 0.0005
86 1 -9.3749 -5.6249 5.6250 0.000056 0.000064 0.000047 0.2745 -0.0027 0.0079
87 1 -9.3748 -5.6251 9.3751 0.000209 -0.000077 0.000104 0.2666 0.0066 0.0042
88 1 -9.3750 -5.6248 13.1251 0.000036 0.000179 0.000143 0.2719 -0.0057 0.0016
89 1 -9.3750 -1.8751 -13.1251 -0.000038 -0.000094 -0.000062 0.2622 -0.0067 -0.0080
90 1 -9.3749 -1.8751 -9.3753 0.000068 -0.000052 -0.000292 0.2768 -0.0014 -0.0004
91 1 -9.3752 -1.8751 -5.6253 -0.000164 -0.000061 -0.000293 0.2835 -0.0009 0.0056
92 1 -9.3749 -1.8750 -1.8749 0.000067 -0.000045 0.000091 0.2737 0.0098 -0.0093
93 1 -9.3751 -1.8749 1.8751 -0.000071 0.000077 0.000106 0.2751 0.0006 0.0041
94 1 -9.3749 -1.8752 5.6251 0.000058 -0.000186 0.000057 0.2635 0.0059 0.0058
95 1 -9.3750 -1.8750 9.3751 -0.000022 0.000030 0.000068 0.2840 0.0053 0.0023
96 1 -9.3749 -1.8751 13.1250 0.000101 -0.000129 0.000032 0.2831 0.0008 -0.0004
97 1 -9.3749 1.8750 -13.1250 0.000105 -0.000039 -0.000034 0.2700 0.0023 0.0011
98 1 -9.3749 1.8750 -9.3748 0.000115 -0.000023 0.000212 0.2778 -0.0058 -0.0115
99 1 -9.3749 1.8749 -5.6251 0.000147 -0.000099 -0.000081 0.2675 0.0042 0.0057
100 1 -9.3752 1.8751 -1.8751 -0.000154 0.000056 -0.000111 0.2775 -0.0109 -0.0029
101 1 -9.3752 1.8751 1.8749 -0.000166 0.000073 -0.000066 0.2857 -0.0023 -0.0031
102 1 -9.3749 1.8749 5.6250 0.000060 -0.000081 -0.000028 0.2749 -0.0070 -0.0050
103 1 -9.3749 1.8753 9.3749 0.000057 0.000261 -0.000077 0.2791 -0.0088 -0.0080
104 1 -9.3747 1.8747 13.1248 0.000317 -0.000255 -0.000246 0.2550 0.0008 0.0058
105 1 -9.3751 5.6251 -13.1252 -0.000074 0.000143 -0.000157 0.2891 -0.0108 0.0070
106 1 -9.3751 5.6249 -9.3750 -0.000108 -0.000118 -0.000010 0.2810 0.0023 -0.0089
107 1 -9.3752 5.6251 -5.6250 -0.000176 0.000084 -0.000042 0.2868 -0.0119 0.0091
108 1 -9.3749 5.6248 -1.8748 0.000070 -0.000199 0.000195 0.2652 0.0082 -0.0081
109 1 -9.3751 5.6249 1.8750 -0.000059 -0.000086 0.000030 0.2740 0.0065 0.0087
110 1 -9.3750 5.6250 5.6250 -0.000033 0.000001 -0.000001 0.2649 -0.0058 0.0103
111 1 -9.3750 5.6251 9.3752 0.000001 0.000075 0.000235 0.2707 -0.0011 -0.0086
112 1 -9.3750 5.6249 13.1250 -0.000005 -0.000094 0.000019 0.2794 -0.0086 0.0032
113 1 -9.3747 9.3749 -13.1251 0.000252 -0.000068 -0.000061 0.2621 0.0039 -0.0011
114 1 -9.3751 9.3750 -9.3751 -0.000058 0.000033 -0.000075 0.2818 -0.0064 -0.0020
115 1 -9.3750 9.3749 -5.6250 -0.000036 -0.000101 -0.000003 0.2829 0.0081 -0.0049
116 1 -9.3749 9.3750 -1.8751 0.000084 -0.000023 -0.000090 0.2770 -0.0109 -0.0030
117 1 -9.3747 9.3751 1.8749 0.000292 0.000064 -0.000120 0.2592 -0.0063 -0.0035
118 1 -9.3747 9.3750 5.6249 0.000341 -0.000044 -0.000124 0.2480 0.0046 -0.0035
119 1 -9.3749 9.3749 9.3749 0.000097 -0.000131 -0.000057 0.2780 0.0057 -0.0055
120 1 -9.3751 9.3750 13.1249 -0.000079 0.000014 -0.000088 0.2811 0.0000 -0.0014
121 1 -9.3749 13.1249 -13.1249 0.000053 -0.000071 0.000104 0.2781 0.0063 0.0054
122 1 -9.3751 13.1250 -9.3749 -0.000098 -0.000043 0.000082 0.2740 -0.0000 -0.0030
123 1 -9.3750 13.1251 -5.6251 0.000025 0.000054 -0.000113 0.2707 -0.0004 0.0079
124 1 -9.3751 13.1249 -1.8750 -0.000060 -0.000120 0.000040 0.2778 0.0052 -0.0094
125 1 -9.3749 13.1250 1.8749 0.000074 -0.000031 -0.000103 0.2757 0.0027 0.0030
126 1 -9.3750 13.1251 5.6250 0.000026 0.000106 -0.000046 0.2764 0.0107 -0.0133
127 1 -9.3750 13.1250 9.3747 -0.000015 -0.000028 -0.000272 0.2659 -0.0004 0.0154
128 1 -9.3749 13.1251 13.1251 0.000089 0.000075 0.000121 0.2660 0.0007 -0.0093
129 1 -5.6250 -13.1249 -13.1251 -0.000020 0.000123 -0.000083 0.0256 0.0113 -0.0028
130 1 -5.6250 -13.1247 -9.3751 0.000017 0.000251 -0.000143 0.0282 -0.0060 -0.0079
131 1 -5.6249 -13.1251 -5.6252 0.000064 -0.000135 -0.000215 0.0144 0.0136 0.0005
132 1 -5.6251 -13.1252 -1.8751 -0.000083 -0.000176 -0.000087 0.0305 0.0289 -0.0120
133 1 -5.6248 -13.1250 1.8749 0.000176 0.000011 -0.000148 0.0008 0.0089 0.0025
134 1 -5.6249 -13.1249 5.6250 0.000078 0.000112 0.000039 0.0148 -0.0030 -0.0010
135 1 -5.6250 -13.1249 9.3751 -0.000001 0.000081 0.000129 0.0176 0.0148 -0.0039
136 1 -5.6249 -13.1251 13.1250 0.000070 -0.000072 -0.000039 0.0208 0.0072 0.0026
137 1 -5.6250 -9.3748 -13.1249 0.000009 0.000192 0.000055 0.0147 0.0043 -0.0002
138 1 -5.6251 -9.3750 -9.3750 -0.000071 0.000017 -0.000004 0.0256 0.0112 -0.0033
139 1 -5.6250 -9.3749 -5.6251 0.000019 0.000093 -0.000085 0.0373 -0.0080 0.0011
140 1 -5.6253 -9.3749 -1.8750 -0.000255 0.000095 -0.000013 0.0495 -0.0165 -0.0006
141 1 -5.6248 -9.3748 1.8751 0.000177 0.000182 0.000097 0.0224 -0.0019 0.0022
142 1 -5.6252 -9.3751 5.6251 -0.000192 -0.000086 0.000118 0.0430 0.0077 -0.0008
143 1 -5.6248 -9.3749 9.3750 0.000152 0.000063 -0.000026 0.0169 0.0070 0.0059
144 1 -5.6249 -9.3748 13.1250 0.000104 0.000189 0.000014 0.0078 -0.0077 0.0012
145 1 -5.6250 -5.6249 -13.1250 -0.000020 0.000110 -0.000010 0.0221 0.0020 -0.0014
146 1 -5.6249 -5.6250 -9.3751 0.000105 0.000007 -0.000130 0.0244 -0.0028 -0.0016
147 1 -5.6249 -5.6251 -5.6251 0.000091 -0.000080 -0.000101 0.0191 -0.0006 0.0004
148 1 -5.6248 -5.6253 -1.8749 0.000173 -0.000251 0.000103 0.0211 0.0193 -0.0054
149 1 -5.6249 -5.6250 1.8750 0.000082 0.000043 0.000044 0.0258 0.0076 0.0032
150 1 -5.6251 -5.6250 5.6250 -0.000131 -0.000034 0.000020 0.0326 -0.0072 0.0083
151 1 -5.6250 -5.6249 9.3751 -0.000026 0.000127 0.000149 0.0439 -0.0011 -0.0002
152 1 -5.6250 -5.6250 13.1251 -0.000043 0.000023 0.000083 0.0256 0.0042 0.0019
153 1 -5.6251 -1.8751 -13.1250 -0.000149 -0.000074 -0.000010 0.0279 0.0037 0.0004
154 1 -5.6249 -1.8751 -9.3751 0.000149 -0.000101 -0.000120 0.0125 0.0010 0.0023
155 1 -5.6250 -1.8752 -5.6250 0.000049 -0.000235 0.000002 0.0252 -0.0004 -0.0092
156 1 -5.6250 -1.8748 -1.8751 0.000020 0.000162 -0.000104 0.0295 -0.0203 -0.0048
157 1 -5.6253 -1.8750 1.8748 -0.000250 0.000019 -0.000182 0.0452 -0.0081 0.0033
158 1 -5.6250 -1.8752 5.6250 -0.000023 -0.000165 0.000044 0.0287 0.0064 -0.0047
159 1 -5.6249 -1.8750 9.3751 0.000095 -0.000026 0.000054 0.0137 0.0079 0.0052
160 1 -5.6247 -1.8751 13.1251 0.000273 -0.000055 0.000100 0.0129 0.0056 -0.0010
161 1 -5.6249 1.8750 -13.1252 0.000060 -0.000011 -0.000153 0.0266 -0.0068 0.0100
162 1 -5.6248 1.8750 -9.3750 0.000206 -0.000025 0.000011 0.0212 -0.0032 -0.0026
163 1 -5.6251 1.8749 -5.6249 -0.000134 -0.000137 0.000118 0.0406 -0.0071 -0.0110
164 1 -5.6251 1.8749 -1.8752 -0.000088 -0.000086 -0.000204 0.0260 0.0091 0.0065
165 1 -5.6250 1.8749 1.8748 -0.000028 -0.000137 -0.000172 0.0164 0.0010 -0.0047
166 1 -5.6249 1.8751 5.6249 0.000075 0.000135 -0.000066 0.0259 -0.0183 -0.0044
167 1 -5.6249 1.8751 9.3750 0.000085 0.000122 0.000022 0.0168 -0.0020 0.0024
168 1 -5.6251 1.8751 13.1251 -0.000054 0.000141 0.000069 0.0404 -0.0140 -0.0065
169 1 -5.6249 5.6250 -13.1251 0.000124 0.000011 -0.000072 0.0087 -0.0061 0.0179
170 1 -5.6250 5.6251 -9.3749 0.000011 0.000078 0.000134 0.0108 0.0002 -0.0106
171 1 -5.6249 5.6250 -5.6251 0.000149 -0.000012 -0.000087 0.0004 -0.0149 0.0010
172 1 -5.6250 5.6251 -1.8751 -0.000002 0.000109 -0.000123 0.0141 -0.0192 -0.0029
173 1 -5.6250 5.6250 1.8749 0.000034 0.000037 -0.000085 0.0154 -0.0053 -0.0007
174 1 -5.6252 5.6249 5.6250 -0.000232 -0.000083 0.000009 0.0311 -0.0009 -0.0060
175 1 -5.6250 5.6252 9.3749 0.000025 0.000236 -0.000058 0.0070 -0.0147 0.0098
176 1 -5.6247 5.6249 13.1252 0.000281 -0.000108 0.000205 0.0010 0.0002 -0.0110
177 1 -5.6249 9.3750 -13.1252 0.000059 0.000038 -0.000155 0.0103 0.0015 0.0153
178 1 -5.6248 9.3752 -9.3749 0.000193 0.000236 0.000052 0.0037 -0.0086 -0.0033
179 1 -5.6249 9.3749 -5.6249 0.000093 -0.000102 0.000125 0.0091 0.0024 -0.0021
180 1 -5.6249 9.3748 -1.8750 0.000095 -0.000228 0.000015 0.0011 0.0273 0.0048
181 1 -5.6249 9.3752 1.8750 0.000062 0.000153 0.000049 0.0104 -0.0056 0.0007
182 1 -5.6253 9.3749 5.6250 -0.000321 -0.000094 0.000006 0.0428 -0.0015 -0.0054
183 1 -5.6249 9.3748 9.3748 0.000110 -0.000162 -0.000173 -0.0032 0.0254 0.0121
184 1 -5.6249 9.3749 13.1252 0.000131 -0.000064 0.000158 0.0075 -0.0091 -0.0171
185 1 -5.6250 13.1251 -13.1250 0.000030 0.000078 0.000004 0.0084 0.0097 -0.0049
186 1 -5.6251 13.1250 -9.3751 -0.000110 -0.000045 -0.000055 0.0141 0.0263 -0.0042
187 1 -5.6251 13.1250 -5.6251 -0.000088 0.000024 -0.000099 0.0179 -0.0040 0.0014
188 1 -5.6250 13.1254 -1.8750 0.000032 0.000391 0.000014 0.0060 -0.0296 -0.0075
189 1 -5.6250 13.1249 1.8749 0.000042 -0.000071 -0.000077 0.0082 0.0109 0.0063
190 1 -5.6249 13.1250 5.6251 0.000088 0.000009 0.000072 0.0046 0.0039 0.0012
191 1 -5.6252 13.1253 9.3752 -0.000210 0.000300 0.000172 0.0202 -0.0118 -0.0070
192 1 -5.6251 13.1249 13.1249 -0.000079 -0.000146 -0.000145 0.0163 0.0031 0.0106
193 1 -1.8750 -13.1252 -13.1249 0.000002 -0.000231 0.000145 -0.0888 0.0430 0.0015
194 1 -1.8748 -13.1250 -9.3748 0.000186 0.000021 0.000180 -0.1101 0.0524 -0.0055
195 1 -1.8750 -13.1252 -5.6251 0.000034 -0.000161 -0.000146 -0.0997 0.0309 0.0065
196 1 -1.8750 -13.1252 -1.8751 0.000033 -0.000228 -0.000110 -0.1078 0.0559 -0.0124
197 1 -1.8751 -13.1247 1.8747 -0.000122 0.000273 -0.000259 -0.0878 0.0305 0.0037
198 1 -1.8750 -13.1249 5.6249 0.000023 0.000063 -0.000092 -0.0955 0.0271 -0.0118
199 1 -1.8750 -13.1248 9.3749 0.000015 0.000203 -0.000109 -0.1015 0.0357 -0.0018
200 1 -1.8750 -13.1250 13.1249 -0.000009 -0.000000 -0.000055 -0.0923 0.0271 0.0031
201 1 -1.8753 -9.3752 -13.1249 -0.000266 -0.000224 0.000056 -0.0276 0.0095 0.0031
202 1 -1.8749 -9.3748 -9.3750 0.000073 0.000160 -0.000027 -0.0505 0.0068 0.0006
203 1 -1.8749 -9.3751 -5.6250 0.000089 -0.000074 -0.000024 -0.0457 0.0159 -0.0002
204 1 -1.8750 -9.3749 -1.8750 0.000041 0.000122 -0.000004 -0.0502 0.0034 -0.0023
205 1 -1.8749 -9.3750 1.8750 0.000069 -0.000010 -0.000020 -0.0339 0.0280 -0.0049
206 1 -1.8749 -9.3751 5.6248 0.000051 -0.000149 -0.000156 -0.0593 0.0184 0.0061
207 1 -1.8749 -9.3750 9.3751 0.000069 0.000004 0.000075 -0.0431 0.0189 -0.0026
208 1 -1.8750 -9.3751 13.1251 -0.000019 -0.000053 0.000131 -0.0367 0.0135 0.0013
209 1 -1.8751 -5.6251 -13.1249 -0.000061 -0.000100 0.000095 -0.0248 -0.0075 -0.0026
210 1 -1.8751 -5.6250 -9.3750 -0.000060 -0.000040 0.000006 -0.0358 0.0032 0.0047
211 1 -1.8751 -5.6248 -5.6249 -0.000074 0.000178 0.000087 -0.0221 -0.0049 0.0011
212 1 -1.8750 -5.6249 -1.8749 -0.000038 0.000088 0.000091 -0.0223 0.0019 -0.0042
213 1 -1.8751 -5.6249 1.8749 -0.000072 0.000138 -0.000123 -0.0297 0.0007 0.0030
214 1 -1.8752 -5.6250 5.6249 -0.000206 -0.000040 -0.000077 -0.0236 0.0004 0.0050
215 1 -1.8749 -5.6250 9.3752 0.000127 -0.000017 0.000208 -0.0469 -0.0041 -0.0100
216 1 -1.8752 -5.6250 13.1250 -0.000211 -0.000034 -0.000006 -0.0179 0.0007 0.0118
217 1 -1.8752 -1.8751 -13.1249 -0.000232 -0.000108 0.000095 -0.0302 -0.0065 -0.0008
218 1 -1.8752 -1.8752 -9.3750 -0.000247 -0.000179 -0.000026 -0.0143 0.0018 -0.0035
219 1 -1.8748 -1.8749 -5.6251 0.000158 0.000097 -0.000132 -0.0517 -0.0069 -0.0016
220 1 -1.8750 -1.8750 -1.8751 -0.000004 -0.000014 -0.000056 -0.0461 -0.0103 -0.0086
221 1 -1.8749 -1.8748 1.8749 0.000107 0.000154 -0.000056 -0.0600 -0.0090 0.0010
222 1 -1.8751 -1.8749 5.6250 -0.000086 0.000082 0.000032 -0.0429 -0.0164 -0.0012
223 1 -1.8752 -1.8752 9.3750 -0.000183 -0.000164 0.000006 -0.0248 -0.0053 0.0055
224 1 -1.8751 -1.8750 13.1250 -0.000054 -0.000005 0.000049 -0.0420 -0.0161 0.0036
225 1 -1.8750 1.8750 -13.1251 0.000049 -0.000009 -0.000089 -0.0759 -0.0201 0.0225
226 1 -1.8749 1.8751 -9.3749 0.000148 0.000085 0.000128 -0.0636 -0.0388 -0.0135
227 1 -1.8749 1.8750 -5.6250 0.000106 -0.000037 -0.000010 -0.0977 -0.0322 0.0050
228 1 -1.8749 1.8750 -1.8748 0.000107 -0.000007 0.000192 -0.1011 -0.0423 -0.0068
229 1 -1.8750 1.8751 1.8751 -0.000024 0.000123 0.000137 -0.0916 -0.0293 0.0048
230 1 -1.8748 1.8750 5.6250 0.000185 0.000004 0.000010 -0.0987 -0.0340 -0.0012
231 1 -1.8750 1.8750 9.3749 -0.000030 0.000048 -0.000146 -0.0860 -0.0452 0.0158
232 1 -1.8749 1.8749 13.1252 0.000094 -0.000127 0.000242 -0.0891 -0.0224 -0.0101
233 1 -1.8749 5.6252 -13.1249 0.000076 0.000159 0.000130 -0.1213 -0.0391 0.0051
234 1 -1.8750 5.6248 -9.3749 -0.000022 -0.000227 0.000137 -0.1270 -0.0336 -0.0140
235 1 -1.8750 5.6248 -5.6251 0.000040 -0.000164 -0.000052 -0.1764 -0.0383 -0.0081
236 1 -1.8750 5.6249 -1.8750 -0.000029 -0.000123 -0.000034 -0.2031 -0.0317 -0.0162
237 1 -1.8748 5.6252 1.8747 0.000202 0.000197 -0.000256 -0.2280 -0.0435 0.0154
238 1 -1.8749 5.6251 5.6252 0.000135 0.000125 0.000191 -0.2210 -0.0398 -0.0179
239 1 -1.8751 5.6251 9.3749 -0.000101 0.000060 -0.000065 -0.1972 -0.0446 0.0045
240 1 -1.8749 5.6252 13.1248 0.000140 0.000193 -0.000243 -0.1878 -0.0440 0.0269
241 1 -1.8752 9.3751 -13.1250 -0.000152 0.000139 -0.000044 -0.2054 -0.0121 0.0271
242 1 -1.8748 9.3748 -9.3748 0.000191 -0.000215 0.000170 -0.2213 -0.0129 -0.0155
243 1 -1.8748 9.3748 -5.6250 0.000200 -0.000154 -0.000037 -0.2473 -0.0176 0.0037
244 1 -1.8751 9.3751 -1.8749 -0.000104 0.000059 0.000089 -0.2326 -0.0034 -0.0162
245 1 -1.8751 9.3749 1.8748 -0.000118 -0.000132 -0.000205 -0.2419 0.0120 0.0161
246 1 -1.8750 9.3750 5.6251 0.000044 0.000023 0.000129 -0.2714 0.0010 -0.0161
247 1 -1.8752 9.3748 9.3749 -0.000235 -0.000166 -0.000084 -0.2317 0.0098 0.0212
248 1 -1.8747 9.3751 13.1253 0.000264 0.000117 0.000278 -0.2439 -0.0133 -0.0088
249 1 -1.8751 13.1251 -13.1249 -0.000140 0.000111 0.000073 -0.1824 0.0254 0.0005
250 1 -1.8751 13.1252 -9.3750 -0.000055 0.000175 0.000024 -0.2107 0.0192 0.0033
251 1 -1.8750 13.1247 -5.6249 -0.000036 -0.000262 0.000133 -0.2076 0.0319 -0.0041
252 1 -1.8751 13.1251 -1.8750 -0.000060 0.000106 0.000010 -0.2037 0.0266 -0.0046
253 1 -1.8751 13.1251 1.8748 -0.000080 0.000062 -0.000217 -0.1985 0.0390 0.0109
254 1 -1.8751 13.1249 5.6250 -0.000091 -0.000092 0.000025 -0.2022 0.0418 -0.0095
255 1 -1.8751 13.1251 9.3750 -0.000130 0.000103 -0.000033 -0.2179 0.0359 0.0029
256 1 -1.8751 13.1247 13.1250 -0.000130 -0.000270 -0.000032 -0.1979 0.0482 0.0040
257 1 1.8752 -13.1251 -13.1251 0.000196 -0.000066 -0.000054 -0.8556 0.6063 0.0046
258 1 1.8749 -13.1250 -9.3751 -0.000075 -0.000046 -0.000057 -0.8415 0.6081 0.0045
259 1 1.8749 -13.1249 -5.6249 -0.000092 0.000061 0.000144 -0.8551 0.6130 -0.0018
260 1 1.8748 -13.1251 -1.8748 -0.000175 -0.000089 0.000166 -0.8473 0.6139 -0.0026
261 1 1.8748 -13.1250 1.8750 -0.000155 -0.000040 -0.000031 -0.8481 0.6025 0.0125
262 1 1.8750 -13.1249 5.6251 -0.000024 0.000112 0.000091 -0.8511 0.6010 -0.0054
263 1 1.8749 -13.1251 9.3750 -0.000116 -0.000065 -0.000046 -0.8549 0.6210 0.0086
264 1 1.8750 -13.1249 13.1251 0.000006 0.000060 0.000067 -0.8424 0.6158 -0.0042
265 1 1.8750 -9.3751 -13.1251 -0.000024 -0.000089 -0.000083 -0.3151 0.0710 -0.0104
266 1 1.8750 -9.3747 -9.3751 0.000024 0.000251 -0.000134 -0.2998 0.0409 -0.0021
267 1 1.8751 -9.3749 -5.6251 0.000094 0.000111 -0.000059 -0.3016 0.0553 0.0035
268 1 1.8752 -9.3749 -1.8748 0.000172 0.000108 0.000209 -0.3090 0.0575 -0.0184
269 1 1.8752 -9.3750 1.8748 0.000213 -0.000036 -0.000187 -0.3049 0.0644 0.0155
270 1 1.8749 -9.3752 5.6250 -0.000130 -0.000172 0.000031 -0.3012 0.0668 -0.0071
271 1 1.8750 -9.3747 9.3750 -0.000002 0.000252 -0.000003 -0.3009 0.0352 -0.0069
272 1 1.8750 -9.3750 13.1247 0.000038 0.000029 -0.000257 -0.3061 0.0592 0.0073
273 1 1.8752 -5.6247 -13.1250 0.000149 0.000284 0.000034 -0.2797 -0.0168 0.0054
274 1 1.8747 -5.6252 -9.3748 -0.000251 -0.000153 0.000210 -0.2701 0.0193 -0.0090
275 1 1.8751 -5.6251 -5.6251 0.000139 -0.000058 -0.000052 -0.2936 0.0043 -0.0004
276 1 1.8751 -5.6248 -1.8752 0.000112 0.000160 -0.000188 -0.2827 0.0059 0.0027
277 1 1.8750 -5.6249 1.8749 -0.000044 0.000116 -0.000063 -0.2863 -0.0046 -0.0027
278 1 1.8751 -5.6251 5.6251 0.000100 -0.000108 0.000057 -0.2883 0.0011 -0.0042
279 1 1.8749 -5.6253 9.3750 -0.000088 -0.000284 -0.000045 -0.2819 0.0259 0.0016
280 1 1.8751 -5.6250 13.1249 0.000145 -0.000028 -0.000084 -0.2959 0.0012 0.0038
281 1 1.8749 -1.8751 -13.1251 -0.000059 -0.000114 -0.000101 -0.2912 -0.0088 0.0102
282 1 1.8751 -1.8751 -9.3750 0.000067 -0.000054 0.000026 -0.2930 -0.0189 -0.0100
283 1 1.8749 -1.8751 -5.6250 -0.000071 -0.000146 0.000015 -0.2943 -0.0432 -0.0082
284 1 1.8749 -1.8748 -1.8750 -0.000089 0.000215 -0.000038 -0.2912 -0.0669 0.0018
285 1 1.8750 -1.8749 1.8751 -0.000011 0.000065 0.000104 -0.3029 -0.0660 -0.0040
286 1 1.8749 -1.8749 5.6250 -0.000105 0.000063 0.000001 -0.3001 -0.0641 0.0040
287 1 1.8751 -1.8749 9.3750 0.000080 0.000052 0.000017 -0.3115 -0.0716 0.0047
288 1 1.8746 -1.8751 13.1250 -0.000421 -0.000086 0.000024 -0.2789 -0.0464 0.0047
289 1 1.8746 1.8750 -13.1249 -0.000372 -0.000017 0.000062 -0.3874 -0.1609 0.0896
290 1 1.8750 1.8752 -9.3751 -0.000030 0.000226 -0.000125 -0.3953 -0.1675 -0.0791
291 1 1.8749 1.8750 -5.6249 -0.000061 -0.000030 0.000068 -0.7530 -0.5127 -0.1084
292 1 1.8751 1.8748 -1.8751 0.000079 -0.000156 -0.000103 -0.8397 -0.5871 -0.0073
293 1 1.8751 1.8748 1.8750 0.000136 -0.000222 -0.000005 -0.8657 -0.6003 0.0065
294 1 1.8752 1.8751 5.6253 0.000170 0.000086 0.000294 -0.8530 -0.6130 -0.0125
295 1 1.8751 1.8750 9.3750 0.000069 0.000006 -0.000014 -0.8487 -0.6025 0.0325
296 1 1.8751 1.8749 13.1252 0.000050 -0.000085 0.000193 -0.7623 -0.5214 0.0933
297 1 1.8752 5.6251 -13.1250 0.000171 0.000085 -0.000010 -1.2402 -0.6051 0.3518
298 1 1.8750 5.6251 -9.3751 -0.000015 0.000095 -0.000089 -1.2324 -0.5912 -0.3556
299 1 1.8751 5.6252 -5.6249 0.000090 0.000175 0.000132 5.9234 -0.6163 -0.3975
300 1 1.8750 5.6250 -1.8751 0.000031 0.000014 -0.000093 5.5586 -0.6138 -0.0168
301 1 1.8748 5.6249 1.8750 -0.000187 -0.000088 0.000015 5.5531 -0.6018 -0.0028
302 1 1.8751 5.6249 5.6250 0.000166 -0.000117 0.000046 5.5541 -0.5929 -0.0072
303 1 1.8750 5.6250 9.3748 0.000025 -0.000001 -0.000186 5.5565 -0.6044 0.0281
304 1 1.8748 5.6249 13.1248 -0.000163 -0.000104 -0.000210 5.9227 -0.6006 0.3868
305 1 1.8750 9.3750 -13.1253 0.000010 0.000037 -0.000250 5.4672 -0.4438 0.1129
306 1 1.8750 9.3752 -9.3749 0.000020 0.000189 0.000105 5.4814 -0.4589 -0.0874
307 1 1.8750 9.3748 -5.6246 0.000024 -0.000175 0.000358 5.1249 -0.0773 -0.1121
308 1 1.8752 9.3748 -1.8749 0.000181 -0.000156 0.000073 5.0274 -0.0022 -0.0051
309 1 1.8750 9.3751 1.8750 0.000007 0.000125 -0.000049 5.0210 -0.0147 0.0067
310 1 1.8748 9.3750 5.6251 -0.000141 0.000025 0.000058 5.0248 -0.0044 -0.0108
311 1 1.8750 9.3749 9.3748 -0.000033 -0.000075 -0.000205 5.0231 -0.0015 0.0330
312 1 1.8752 9.3750 13.1252 0.000169 0.000031 0.000218 5.1281 -0.0881 0.0724
313 1 1.8753 13.1251 -13.1249 0.000284 0.000067 0.000070 5.5572 0.5641 0.0058
314 1 1.8748 13.1248 -9.3750 -0.000159 -0.000176 -0.000010 5.5592 0.5778 0.0001
315 1 1.8750 13.1251 -5.6249 0.000007 0.000077 0.000133 5.5529 0.5820 -0.0213
316 1 1.8750 13.1250 -1.8752 -0.000006 -0.000043 -0.000183 5.5456 0.5910 0.0003
317 1 1.8751 13.1249 1.8747 0.000100 -0.000141 -0.000262 5.5460 0.6100 0.0016
318 1 1.8749 13.1251 5.6249 -0.000058 0.000065 -0.000102 5.5430 0.6042 -0.0078
319 1 1.8747 13.1251 9.3750 -0.000281 0.000066 -0.000028 5.5439 0.5916 0.0013
320 1 1.8751 13.1252 13.1250 0.000095 0.000245 0.000015 5.5483 0.5809 0.0100
321 1 5.6251 -13.1249 -13.1249 0.000127 0.000080 0.000141 5.0050 -6.2778 -0.0078
322 1 5.6251 -13.1250 -9.3750 0.000083 -0.000026 0.000032 4.9944 -6.2766 0.0060
323 1 5.6248 -13.1248 -5.6249 -0.000137 0.000141 0.000082 4.9921 -6.2765 -0.0085
324 1 5.6250 -13.1250 -1.8752 0.000028 -0.000066 -0.000155 4.9886 -6.2771 0.0051
325 1 5.6252 -13.1251 1.8749 0.000204 -0.000163 -0.000116 4.9909 -6.2751 -0.0009
326 1 5.6250 -13.1249 5.6250 -0.000002 0.000113 0.000024 4.9947 -6.2798 -0.0101
327 1 5.6249 -13.1250 9.3749 -0.000126 -0.000010 -0.000118 4.9903 -6.2672 0.0026
328 1 5.6253 -13.1249 13.1249 0.000300 0.000116 -0.000112 4.9950 -6.2811 0.0081
329 1 5.6250 -9.3750 -13.1251 -0.000018 0.000006 -0.000056 4.9954 0.1252 0.0149
330 1 5.6250 -9.3750 -9.3747 0.000048 0.000016 0.000257 4.9968 0.1178 -0.0162
331 1 5.6251 -9.3750 -5.6250 0.000078 -0.000006 -0.000038 4.9997 0.1321 0.0112
332 1 5.6250 -9.3751 -1.8750 0.000021 -0.000094 -0.000001 5.0006 0.1287 0.0031
333 1 5.6251 -9.3751 1.8751 0.000145 -0.000114 0.000140 5.0067 0.1403 -0.0088
334 1 5.6250 -9.3752 5.6249 -0.000009 -0.000185 -0.000073 4.9900 0.1483 0.0048
335 1 5.6250 -9.3748 9.3749 0.000040 0.000151 -0.000069 4.9958 0.1203 0.0014
336 1 5.6250 -9.3751 13.1250 0.000018 -0.000125 0.000046 4.9973 0.1314 -0.0058
337 1 5.6252 -5.6251 -13.1251 0.000185 -0.000074 -0.000086 5.0035 0.0149 0.0176
338 1 5.6251 -5.6251 -9.3750 0.000120 -0.000124 0.000035 4.9888 0.0143 0.0012
339 1 5.6248 -5.6250 -5.6248 -0.000178 0.000044 0.000170 5.0011 0.0018 -0.0138
340 1 5.6251 -5.6250 -1.8752 0.000073 0.000036 -0.000184 4.9993 -0.0013 0.0177
341 1 5.6249 -5.6246 1.8751 -0.000079 0.000398 0.000089 4.9931 -0.0344 -0.0132
342 1 5.6250 -5.6248 5.6249 0.000060 0.000249 -0.000071 4.9992 -0.0232 0.0066
343 1 5.6248 -5.6249 9.3750 -0.000174 0.000087 0.000031 4.9929 0.0054 0.0102
344 1 5.6249 -5.6251 13.1253 -0.000110 -0.000084 0.000343 5.0007 0.0015 -0.0193
345 1 5.6250 -1.8749 -13.1248 0.000022 0.000137 0.000169 4.9932 -0.0616 0.0088
346 1 5.6251 -1.8750 -9.3750 0.000077 0.000008 0.000001 4.9980 -0.0534 -0.0091
347 1 5.6249 -1.8750 -5.6251 -0.000115 0.000021 -0.000072 4.9934 -0.0952 -0.0061
348 1 5.6253 -1.8749 -1.8748 0.000280 0.000104 0.000198 4.9926 -0.1249 -0.0191
349 1 5.6249 -1.8752 1.8749 -0.000083 -0.000167 -0.000057 4.9946 -0.0983 0.0045
350 1 5.6251 -1.8751 5.6249 0.000165 -0.000060 -0.000129 4.9944 -0.1213 0.0093
351 1 5.6250 -1.8749 9.3752 0.000011 0.000068 0.000163 4.9982 -0.1130 -0.0050
352 1 5.6250 -1.8750 13.1251 0.000062 -0.000020 0.000077 4.9805 -0.0997 0.0240
353 1 5.6250 1.8748 -13.1252 -0.000003 -0.000242 -0.000185 4.9825 -0.4973 0.3595
354 1 5.6250 1.8749 -9.3751 0.000018 -0.000129 -0.000066 4.9951 -0.5024 -0.3683
355 1 5.6250 1.8750 -5.6251 0.000037 0.000070 -0.000059 4.9938 6.6469 -0.3799
356 1 5.6251 1.8750 -1.8749 0.000119 0.000003 0.000122 5.0008 6.2900 -0.0345
357 1 5.6248 1.8751 1.8750 -0.000214 0.000080 0.000019 5.0020 6.2676 0.0001
358 1 5.6250 1.8747 5.6249 -0.000030 -0.000234 -0.000050 5.0010 6.2734 0.0019
359 1 5.6250 1.8752 9.3749 0.000044 0.000214 -0.000076 4.9981 6.2865 0.0178
360 1 5.6248 1.8750 13.1248 -0.000194 0.000028 -0.000219 4.9983 6.6441 0.3861
361 1 5.6250 5.6249 -13.1251 -0.000011 -0.000046 -0.000123 5.0025 6.2737 -7.1364
362 1 5.6251 5.6251 -9.3748 0.000155 0.000121 0.000207 4.9971 6.2762 7.1387
ITEM: TIMESTEP
10
ITEM: NUMBER OF ATOMS
362
ITEM: BOX BOUNDS pp pp pp
-15.000000 15.000000
-15.000000 15.000000
-15.000000 15.000000
ITEM: ATOMS id type xu yu zu vx vy vz fx fy fz
1 1 -13.1258 -13.1248 -13.1242 -0.000243 0.000016 0.000072 -4.9221 0.0494 -0.0226
2 1 -13.1271 -13.1246 -9.3735 -0.000365 0.000036 0.000136 -4.9158 0.0686 -0.1802
3 1 -13.1256 -13.1273 -5.6280 -0.000225 -0.000204 -0.000261 -5.0001 0.1628 0.4027
4 1 -13.1258 -13.1253 -1.8710 -0.000246 -0.000028 0.000353 -4.9232 -0.0536 -0.3750
5 1 -13.1265 -13.1254 1.8749 -0.000304 -0.000033 -0.000005 -4.9749 -0.0090 0.2015
6 1 -13.1281 -13.1250 5.6262 -0.000456 0.000002 0.000111 -4.9120 0.0656 -0.1150
7 1 -13.1265 -13.1259 9.3743 -0.000310 -0.000082 -0.000059 -4.9715 0.1479 0.0666
8 1 -13.1285 -13.1265 13.1243 -0.000489 -0.000135 -0.000059 -4.8299 -0.0283 0.0459