ITEM: TIMESTEP
0
ITEM: NUMBER OF ATOMS
363
ITEM: BOX BOUNDS pp pp pp
-15.000000 15.000000
-15.000000 15.000000
-15.000000 15.000000
ITEM: ATOMS id type xu yu zu vx vy vz fx fy fz
1 1 -13.1250 -13.1250 -13.1250 -0.000073 -0.000078 0.000041 -5.0569 -0.0014 -0.0026
2 1 -13.1251 -13.1250 -9.3750 -0.000129 -0.000008 0.000058 -5.0519 0.0016 -0.0042
3 1 -13.1250 -13.1249 -5.6251 -0.000021 0.000190 -0.000165 -5.0562 -0.0078 0.0075
4 1 -13.1250 -13.1250 -1.8750 0.000014 0.000055 0.000053 -5.0575 -0.0013 -0.0022
5 1 -13.1249 -13.1250 1.8751 0.000158 -0.000073 0.000156 -5.0583 0.0011 -0.0033
6 1 -13.1251 -13.1250 5.6250 -0.000122 -0.000050 0.000043 -5.0515 -0.0019 0.0019
7 1 -13.1250 -13.1250 9.3750 0.000068 -0.000089 0.000011 -5.0563 0.0018 -0.0019
8 1 -13.1250 -13.1250 13.1249 -0.000050 0.000065 -0.000121 -5.0527 -0.0029 0.0048
9 1 -13.1250 -9.3751 -13.1250 -0.000074 -0.000121 -0.000088 -5.0520 0.0022 0.0056
10 1 -13.1251 -9.3750 -9.3750 -0.000238 0.000046 -0.000083 -5.0533 -0.0007 0.0012
11 1 -13.1250 -9.3750 -5.6250 0.000001 -0.000028 0.000009 -5.0536 0.0033 0.0000
12 1 -13.1250 -9.3750 -1.8750 -0.000042 0.000023 0.000091 -5.0562 -0.0012 -0.0028
13 1 -13.1249 -9.3749 1.8750 0.000193 0.000117 0.000008 -5.0595 -0.0024 -0.0010
14 1 -13.1251 -9.3751 5.6249 -0.000115 -0.000141 -0.000127 -5.0542 0.0033 0.0046
15 1 -13.1250 -9.3750 9.3750 -0.000014 -0.000071 0.000016 -5.0567 -0.0000 0.0015
16 1 -13.1249 -9.3750 13.1251 0.000115 -0.000044 0.000239 -5.0568 0.0046 -0.0092
17 1 -13.1250 -5.6250 -13.1249 0.000052 -0.000024 0.000197 -5.0571 -0.0013 -0.0070
18 1 -13.1250 -5.6250 -9.3750 -0.000059 0.000042 -0.000030 -5.0544 0.0011 0.0035
19 1 -13.1251 -5.6250 -5.6250 -0.000137 -0.000063 -0.000073 -5.0558 0.0018 0.0044
20 1 -13.1249 -5.6250 -1.8749 0.000204 -0.000072 0.000131 -5.0588 0.0058 -0.0071
21 1 -13.1251 -5.6249 1.8750 -0.000216 0.000151 -0.000082 -5.0506 -0.0011 0.0060
22 1 -13.1249 -5.6250 5.6250 0.000100 -0.000018 0.000043 -5.0562 -0.0013 -0.0046
23 1 -13.1250 -5.6250 9.3749 -0.000018 -0.000041 -0.000101 -5.0545 -0.0020 0.0040
24 1 -13.1251 -5.6250 13.1250 -0.000130 0.000093 0.000005 -5.0563 -0.0032 0.0012
25 1 -13.1250 -1.8750 -13.1250 0.000011 0.000017 -0.000091 -5.0547 -0.0010 0.0029
26 1 -13.1250 -1.8750 -9.3750 -0.000052 0.000085 -0.000039 -5.0562 -0.0013 -0.0011
27 1 -13.1251 -1.8750 -5.6250 -0.000206 0.000013 -0.000044 -5.0539 0.0002 -0.0021
28 1 -13.1250 -1.8749 -1.8751 -0.000054 0.000171 -0.000153 -5.0522 -0.0052 0.0022
29 1 -13.1251 -1.8750 1.8749 -0.000116 0.000098 -0.000110 -5.0493 -0.0018 -0.0002
30 1 -13.1250 -1.8750 5.6250 0.000036 0.000055 -0.000058 -5.0559 -0.0011 0.0008
31 1 -13.1249 -1.8751 9.3750 0.000141 -0.000111 0.000058 -5.0562 0.0060 -0.0019
32 1 -13.1250 -1.8750 13.1250 0.000079 0.000027 0.000044 -5.0568 0.0011 -0.0022
33 1 -13.1250 1.8750 -13.1250 0.000010 0.000001 -0.000011 -5.0566 -0.0010 0.0004
34 1 -13.1251 1.8750 -9.3750 -0.000174 0.000042 -0.000074 -5.0546 0.0022 0.0038
35 1 -13.1250 1.8751 -5.6250 0.000040 0.000115 0.000085 -5.0566 -0.0042 -0.0049
36 1 -13.1249 1.8751 -1.8750 0.000126 0.000106 -0.000042 -5.0560 -0.0004 0.0047
37 1 -13.1250 1.8750 1.8750 0.000076 -0.000058 0.000090 -5.0540 0.0049 -0.0014
38 1 -13.1249 1.8750 5.6251 0.000157 0.000064 0.000129 -5.0575 -0.0026 -0.0056
39 1 -13.1250 1.8751 9.3749 0.000012 0.000171 -0.000161 -5.0545 -0.0074 0.0091
40 1 -13.1251 1.8750 13.1250 -0.000111 0.000009 0.000069 -5.0577 0.0010 -0.0054
41 1 -13.1250 5.6250 -13.1250 -0.000014 -0.000072 -0.000031 -5.0556 0.0019 -0.0002
42 1 -13.1250 5.6251 -9.3750 -0.000007 0.000117 -0.000091 -5.0562 -0.0033 0.0009
43 1 -13.1250 5.6250 -5.6250 -0.000051 -0.000016 -0.000097 -5.0526 0.0010 0.0028
44 1 -13.1249 5.6250 -1.8750 0.000163 0.000001 0.000066 -5.0561 0.0017 -0.0042
45 1 -13.1250 5.6250 1.8750 0.000041 0.000063 -0.000024 -5.0571 -0.0040 0.0044
46 1 -13.1250 5.6250 5.6251 -0.000054 -0.000070 0.000115 -5.0532 0.0043 -0.0033
47 1 -13.1250 5.6250 9.3750 -0.000031 0.000022 0.000055 -5.0557 0.0023 0.0006
48 1 -13.1249 5.6250 13.1250 0.000116 0.000046 0.000012 -5.0571 -0.0011 -0.0002
49 1 -13.1250 9.3750 -13.1251 -0.000098 -0.000016 -0.000142 -5.0537 -0.0027 0.0075
50 1 -13.1250 9.3750 -9.3750 -0.000046 -0.000004 -0.000036 -5.0514 0.0032 -0.0027
51 1 -13.1250 9.3750 -5.6250 -0.000078 -0.000080 -0.000075 -5.0546 0.0016 0.0009
52 1 -13.1250 9.3750 -1.8750 0.000084 -0.000020 -0.000057 -5.0551 0.0010 -0.0021
53 1 -13.1250 9.3750 1.8749 -0.000073 -0.000049 -0.000141 -5.0561 -0.0006 0.0038
54 1 -13.1250 9.3750 5.6250 -0.000083 0.000045 0.000001 -5.0542 -0.0038 -0.0030
55 1 -13.1250 9.3750 9.3750 0.000067 -0.000003 -0.000008 -5.0542 0.0007 0.0036
56 1 -13.1250 9.3750 13.1251 -0.000064 0.000008 0.000189 -5.0548 0.0005 -0.0089
57 1 -13.1250 13.1250 -13.1249 0.000026 -0.000093 0.000135 -5.0567 0.0012 -0.0047
58 1 -13.1250 13.1250 -9.3750 -0.000024 0.000037 -0.000005 -5.0566 -0.0013 0.0016
59 1 -13.1250 13.1250 -5.6250 0.000042 -0.000042 -0.000061 -5.0545 0.0032 0.0028
60 1 -13.1250 13.1250 -1.8750 -0.000020 0.000009 0.000034 -5.0542 0.0006 -0.0046
61 1 -13.1251 13.1249 1.8749 -0.000188 -0.000188 -0.000127 -5.0536 0.0041 0.0061
62 1 -13.1250 13.1250 5.6250 -0.000065 -0.000056 0.000070 -5.0526 0.0020 -0.0042
63 1 -13.1250 13.1250 9.3750 -0.000010 0.000012 0.000028 -5.0553 -0.0021 0.0000
64 1 -13.1250 13.1250 13.1250 -0.000008 -0.000000 -0.000013 -5.0523 0.0014 0.0036
65 1 -9.3751 -13.1250 -13.1250 -0.000151 0.000044 -0.000006 0.2030 -0.0003 0.0018
66 1 -9.3750 -13.1250 -9.3750 0.000067 0.000068 0.000046 0.1970 -0.0022 0.0000
67 1 -9.3750 -13.1250 -5.6250 -0.000067 0.000067 0.000092 0.2025 -0.0005 0.0006
68 1 -9.3751 -13.1250 -1.8749 -0.000107 -0.000076 0.000137 0.2034 0.0017 -0.0047
69 1 -9.3750 -13.1250 1.8749 -0.000044 0.000070 -0.000101 0.2054 -0.0017 0.0039
70 1 -9.3749 -13.1249 5.6250 0.000119 0.000131 -0.000091 0.1944 -0.0027 0.0017
71 1 -9.3750 -13.1250 9.3750 -0.000010 0.000065 0.000038 0.2025 0.0017 -0.0022
72 1 -9.3749 -13.1250 13.1250 0.000109 0.000079 0.000037 0.1968 -0.0026 -0.0002
73 1 -9.3749 -9.3750 -13.1250 0.000117 -0.000047 0.000060 0.1963 0.0030 -0.0008
74 1 -9.3750 -9.3750 -9.3749 -0.000089 -0.000037 0.000147 0.1981 0.0036 -0.0029
75 1 -9.3750 -9.3750 -5.6250 0.000065 -0.000088 0.000033 0.1993 0.0048 -0.0010
76 1 -9.3750 -9.3750 -1.8751 -0.000057 0.000015 -0.000145 0.2001 -0.0007 0.0034
77 1 -9.3750 -9.3750 1.8750 -0.000087 0.000016 -0.000095 0.2079 -0.0002 0.0004
78 1 -9.3750 -9.3750 5.6250 -0.000018 0.000076 0.000002 0.2007 0.0025 0.0010
79 1 -9.3750 -9.3749 9.3751 -0.000081 0.000126 0.000139 0.2026 -0.0043 -0.0061
80 1 -9.3750 -9.3750 13.1250 -0.000009 0.000021 -0.000078 0.2044 -0.0016 0.0056
81 1 -9.3750 -5.6250 -13.1250 -0.000070 0.000022 0.000097 0.2019 -0.0028 -0.0020
82 1 -9.3750 -5.6250 -9.3750 -0.000020 0.000047 -0.000048 0.2000 -0.0041 0.0020
83 1 -9.3751 -5.6250 -5.6250 -0.000132 0.000027 -0.000058 0.2020 -0.0009 -0.0010
84 1 -9.3750 -5.6250 -1.8751 -0.000053 0.000068 -0.000108 0.2051 -0.0029 0.0032
85 1 -9.3749 -5.6250 1.8750 0.000108 -0.000029 0.000039 0.1951 0.0014 -0.0038
86 1 -9.3750 -5.6249 5.6250 0.000018 0.000135 -0.000047 0.2013 0.0004 0.0057
87 1 -9.3750 -5.6250 9.3751 0.000033 -0.000071 0.000185 0.2005 0.0048 -0.0046
88 1 -9.3751 -5.6251 13.1251 -0.000141 -0.000128 0.000127 0.2013 0.0045 0.0012
89 1 -9.3750 -1.8750 -13.1250 0.000042 -0.000077 0.000056 0.1967 0.0007 -0.0006
90 1 -9.3751 -1.8750 -9.3750 -0.000113 -0.000092 -0.000012 0.2032 0.0032 0.0008
91 1 -9.3750 -1.8750 -5.6250 -0.000094 0.000089 -0.000028 0.1991 -0.0015 0.0003
92 1 -9.3749 -1.8750 -1.8750 0.000127 -0.000053 -0.000016 0.1978 0.0017 -0.0004
93 1 -9.3749 -1.8750 1.8750 0.000226 0.000037 -0.000039 0.1926 -0.0032 0.0013
94 1 -9.3750 -1.8749 5.6250 0.000013 0.000170 0.000010 0.1997 -0.0021 -0.0027
95 1 -9.3750 -1.8750 9.3750 0.000069 0.000004 -0.000093 0.1987 -0.0016 0.0045
96 1 -9.3750 -1.8750 13.1250 -0.000023 0.000005 0.000076 0.2062 -0.0047 -0.0033
97 1 -9.3750 1.8749 -13.1250 -0.000073 -0.000119 0.000026 0.2050 0.0049 0.0002
98 1 -9.3750 1.8750 -9.3749 -0.000097 -0.000022 0.000165 0.2015 0.0016 -0.0031
99 1 -9.3750 1.8750 -5.6250 -0.000053 0.000043 0.000081 0.2034 0.0013 0.0006
100 1 -9.3750 1.8750 -1.8750 0.000075 -0.000049 0.000002 0.2010 -0.0016 0.0033
101 1 -9.3749 1.8750 1.8750 0.000144 -0.000078 0.000092 0.1957 0.0035 -0.0036
102 1 -9.3750 1.8750 5.6250 0.000006 0.000051 -0.000049 0.2022 0.0007 0.0007
103 1 -9.3750 1.8750 9.3749 0.000060 -0.000005 -0.000136 0.2000 0.0003 0.0016
104 1 -9.3751 1.8749 13.1249 -0.000204 -0.000123 -0.000105 0.2066 0.0033 0.0012
105 1 -9.3750 5.6251 -13.1250 -0.000021 0.000120 -0.000033 0.2019 -0.0033 -0.0016
106 1 -9.3750 5.6251 -9.3750 -0.000065 0.000135 -0.000086 0.2018 -0.0061 0.0024
107 1 -9.3749 5.6250 -5.6250 0.000115 0.000044 0.000016 0.1955 -0.0015 -0.0039
108 1 -9.3750 5.6249 -1.8750 0.000092 -0.000116 -0.000096 0.2023 0.0024 -0.0013
109 1 -9.3750 5.6250 1.8749 -0.000056 0.000010 -0.000248 0.2033 -0.0031 0.0053
110 1 -9.3750 5.6250 5.6250 0.000077 -0.000043 -0.000046 0.1967 0.0018 -0.0023
111 1 -9.3750 5.6250 9.3750 -0.000039 0.000013 0.000048 0.2010 -0.0014 -0.0035
112 1 -9.3750 5.6250 13.1250 -0.000019 -0.000053 -0.000060 0.2034 -0.0003 0.0024
113 1 -9.3750 9.3751 -13.1250 0.000010 0.000146 -0.000028 0.1981 -0.0002 -0.0030
114 1 -9.3749 9.3750 -9.3750 0.000164 -0.000062 -0.000029 0.1955 0.0051 0.0008
115 1 -9.3750 9.3750 -5.6250 -0.000015 -0.000046 0.000005 0.1994 0.0057 -0.0004
116 1 -9.3750 9.3750 -1.8750 0.000080 -0.000020 0.000011 0.1980 -0.0021 -0.0004
117 1 -9.3751 9.3750 1.8750 -0.000106 -0.000074 -0.000013 0.2068 0.0029 0.0009
118 1 -9.3750 9.3750 5.6250 -0.000008 -0.000020 0.000003 0.1968 0.0002 0.0015
119 1 -9.3749 9.3750 9.3750 0.000102 -0.000062 0.000092 0.1999 0.0039 -0.0064
120 1 -9.3750 9.3750 13.1249 -0.000016 0.000028 -0.000187 0.1973 -0.0024 0.0073
121 1 -9.3750 13.1251 -13.1250 -0.000066 0.000118 -0.000017 0.2037 -0.0003 -0.0073
122 1 -9.3750 13.1250 -9.3751 -0.000087 0.000039 -0.000198 0.2014 -0.0015 0.0070
123 1 -9.3750 13.1251 -5.6250 0.000076 0.000180 0.000049 0.2003 -0.0054 -0.0039
124 1 -9.3750 13.1250 -1.8750 0.000043 -0.000041 0.000082 0.1974 -0.0007 -0.0018
125 1 -9.3750 13.1250 1.8750 -0.000051 0.000012 0.000005 0.1987 -0.0002 0.0016
126 1 -9.3750 13.1250 5.6250 0.000081 0.000015 0.000003 0.1950 0.0016 0.0017
127 1 -9.3750 13.1250 9.3750 -0.000002 0.000085 0.000097 0.2025 -0.0028 -0.0072
128 1 -9.3749 13.1250 13.1249 0.000150 -0.000017 -0.000220 0.1948 0.0022 0.0088
129 1 -5.6250 -13.1250 -13.1250 -0.000059 0.000062 -0.000094 -0.0014 -0.0013 0.0034
130 1 -5.6250 -13.1251 -9.3750 0.000022 -0.000130 0.000028 0.0012 0.0018 -0.0031
131 1 -5.6250 -13.1250 -5.6250 0.000002 -0.000076 -0.000029 -0.0025 0.0003 0.0025
132 1 -5.6250 -13.1250 -1.8750 -0.000063 0.000010 0.000064 0.0017 0.0024 -0.0014
133 1 -5.6250 -13.1250 1.8750 0.000013 0.000005 0.000081 -0.0003 0.0017 -0.0009
134 1 -5.6250 -13.1250 5.6250 -0.000012 0.000046 0.000033 0.0033 -0.0021 -0.0034
135 1 -5.6250 -13.1250 9.3749 0.000017 -0.000016 -0.000214 -0.0020 0.0015 0.0076
136 1 -5.6250 -13.1250 13.1250 0.000026 -0.000095 -0.000003 0.0012 0.0047 -0.0057
137 1 -5.6250 -9.3750 -13.1250 0.000021 -0.000074 0.000080 0.0018 0.0040 -0.0019
138 1 -5.6250 -9.3751 -9.3750 -0.000044 -0.000132 -0.000093 -0.0011 0.0053 0.0037
139 1 -5.6250 -9.3751 -5.6250 0.000018 -0.000181 -0.000027 0.0033 0.0039 0.0003
140 1 -5.6250 -9.3750 -1.8750 -0.000098 0.000081 0.000072 0.0017 -0.0025 -0.0027
141 1 -5.6250 -9.3750 1.8750 0.000040 0.000089 0.000005 -0.0014 -0.0024 0.0006
142 1 -5.6250 -9.3750 5.6250 0.000080 -0.000011 -0.000044 -0.0046 -0.0005 0.0017
143 1 -5.6250 -9.3750 9.3750 -0.000026 0.000008 0.000007 -0.0018 -0.0016 0.0012
144 1 -5.6250 -9.3750 13.1251 0.000068 -0.000051 0.000130 -0.0012 0.0008 -0.0024
145 1 -5.6251 -5.6250 -13.1250 -0.000111 0.000019 -0.000037 0.0001 -0.0029 0.0004
146 1 -5.6250 -5.6249 -9.3750 -0.000036 0.000174 0.000006 0.0012 -0.0069 0.0009
147 1 -5.6250 -5.6250 -5.6250 -0.000032 -0.000033 0.000097 0.0001 -0.0016 -0.0034
148 1 -5.6250 -5.6250 -1.8750 -0.000064 -0.000014 -0.000019 -0.0003 0.0034 -0.0006
149 1 -5.6249 -5.6250 1.8749 0.000111 0.000029 -0.000169 0.0005 -0.0016 0.0058
150 1 -5.6250 -5.6250 5.6250 -0.000031 -0.000076 0.000036 0.0024 0.0037 -0.0020
151 1 -5.6250 -5.6250 9.3751 0.000056 -0.000050 0.000129 -0.0013 0.0026 -0.0045
152 1 -5.6250 -5.6250 13.1250 -0.000088 0.000044 -0.000038 0.0015 -0.0040 0.0026
153 1 -5.6251 -1.8750 -13.1250 -0.000166 -0.000037 -0.000041 0.0083 -0.0007 0.0017
154 1 -5.6250 -1.8750 -9.3750 -0.000022 0.000072 -0.000062 0.0007 -0.0002 0.0042
155 1 -5.6250 -1.8750 -5.6249 -0.000059 0.000048 0.000155 -0.0018 -0.0065 -0.0073
156 1 -5.6249 -1.8750 -1.8750 0.000122 0.000076 -0.000062 -0.0040 -0.0029 0.0021
157 1 -5.6250 -1.8751 1.8749 0.000098 -0.000130 -0.000151 0.0006 0.0046 0.0066
158 1 -5.6250 -1.8750 5.6251 -0.000049 0.000087 0.000145 0.0039 -0.0048 -0.0091
159 1 -5.6251 -1.8750 9.3750 -0.000123 0.000031 -0.000083 0.0055 -0.0002 0.0071
160 1 -5.6249 -1.8750 13.1250 0.000164 -0.000091 0.000085 -0.0047 0.0037 -0.0051
161 1 -5.6250 1.8749 -13.1250 0.000078 -0.000127 0.000082 -0.0052 0.0036 -0.0026
162 1 -5.6250 1.8750 -9.3750 0.000030 -0.000073 -0.000047 0.0002 0.0027 0.0029
163 1 -5.6250 1.8749 -5.6250 0.000008 -0.000222 0.000006 -0.0001 0.0073 -0.0020
164 1 -5.6250 1.8750 -1.8750 0.000037 -0.000018 -0.000035 -0.0009 0.0024 0.0013
165 1 -5.6250 1.8750 1.8750 -0.000081 0.000007 0.000003 0.0074 -0.0023 0.0007
166 1 -5.6250 1.8750 5.6250 -0.000050 -0.000039 0.000073 -0.0001 0.0046 -0.0018
167 1 -5.6250 1.8750 9.3750 0.000044 0.000093 0.000033 -0.0023 -0.0050 0.0013
168 1 -5.6250 1.8750 13.1250 0.000074 0.000001 0.000046 -0.0080 0.0005 0.0007
169 1 -5.6250 5.6250 -13.1250 0.000038 -0.000005 -0.000024 -0.0014 -0.0032 0.0021
170 1 -5.6250 5.6250 -9.3750 -0.000037 -0.000082 0.000064 -0.0028 0.0016 -0.0008
171 1 -5.6250 5.6250 -5.6250 -0.000030 -0.000035 0.000079 0.0041 -0.0025 -0.0003
172 1 -5.6250 5.6250 -1.8750 0.000095 0.000017 0.000055 0.0008 -0.0029 -0.0007
173 1 -5.6250 5.6250 1.8750 0.000014 0.000019 -0.000034 -0.0034 -0.0003 0.0029
174 1 -5.6250 5.6250 5.6250 -0.000035 0.000088 0.000039 0.0024 -0.0037 -0.0033
175 1 -5.6250 5.6249 9.3750 -0.000010 -0.000141 -0.000077 -0.0015 0.0046 0.0033
176 1 -5.6250 5.6251 13.1250 -0.000014 0.000113 0.000008 0.0003 -0.0018 -0.0022
177 1 -5.6250 9.3750 -13.1250 -0.000022 -0.000049 0.000091 -0.0006 0.0030 -0.0021
178 1 -5.6250 9.3750 -9.3750 0.000044 0.000013 -0.000031 0.0001 -0.0017 0.0035
179 1 -5.6250 9.3750 -5.6250 0.000003 0.000028 0.000048 0.0001 -0.0004 -0.0034
180 1 -5.6250 9.3749 -1.8750 -0.000088 -0.000117 -0.000059 0.0050 0.0052 0.0055
181 1 -5.6249 9.3750 1.8751 0.000215 0.000011 0.000147 -0.0089 0.0007 -0.0069
182 1 -5.6251 9.3750 5.6250 -0.000135 -0.000012 -0.000055 0.0062 0.0018 0.0033
183 1 -5.6250 9.3750 9.3750 0.000062 -0.000077 -0.000057 -0.0016 0.0007 0.0024
184 1 -5.6251 9.3750 13.1250 -0.000131 0.000082 0.000075 0.0032 0.0022 -0.0016
185 1 -5.6250 13.1250 -13.1250 0.000014 0.000098 0.000014 0.0004 -0.0031 -0.0020
186 1 -5.6250 13.1250 -9.3750 -0.000076 0.000007 -0.000091 0.0007 -0.0027 0.0054
187 1 -5.6250 13.1250 -5.6249 0.000056 0.000061 0.000105 -0.0009 -0.0031 -0.0053
188 1 -5.6250 13.1250 -1.8750 -0.000081 0.000060 -0.000010 0.0045 -0.0041 0.0023
189 1 -5.6250 13.1250 1.8750 -0.000010 0.000025 0.000005 0.0006 -0.0004 0.0020
190 1 -5.6250 13.1250 5.6251 -0.000099 -0.000019 0.000138 0.0029 0.0012 -0.0056
191 1 -5.6249 13.1250 9.3750 0.000118 0.000046 -0.000063 -0.0035 -0.0034 0.0048
192 1 -5.6250 13.1251 13.1250 -0.000050 0.000147 0.000003 0.0058 -0.0051 -0.0009
193 1 -1.8750 -13.1250 -13.1250 -0.000020 0.000001 0.000044 -0.0453 0.0211 -0.0025
194 1 -1.8750 -13.1250 -9.3750 0.000023 0.000063 0.000030 -0.0460 0.0235 -0.0018
195 1 -1.8750 -13.1250 -5.6250 -0.000059 -0.000095 -0.000092 -0.0460 0.0279 0.0037
196 1 -1.8750 -13.1250 -1.8750 0.000082 -0.000039 0.000002 -0.0533 0.0267 0.0012
197 1 -1.8750 -13.1249 1.8751 0.000051 0.000155 0.000162 -0.0506 0.0166 -0.0061
198 1 -1.8750 -13.1250 5.6250 0.000033 -0.000097 -0.000041 -0.0466 0.0278 0.0031
199 1 -1.8750 -13.1250 9.3750 -0.000062 -0.000078 -0.000060 -0.0420 0.0276 -0.0004
200 1 -1.8750 -13.1250 13.1250 -0.000000 0.000008 -0.000092 -0.0488 0.0235 0.0026
201 1 -1.8750 -9.3750 -13.1250 0.000008 0.000061 0.000030 0.0036 -0.0021 -0.0027
202 1 -1.8750 -9.3750 -9.3750 -0.000046 -0.000041 -0.000018 -0.0019 0.0045 0.0028
203 1 -1.8749 -9.3750 -5.6250 0.000138 0.000053 0.000083 -0.0036 -0.0024 -0.0010
204 1 -1.8750 -9.3750 -1.8749 -0.000023 -0.000055 0.000102 -0.0012 0.0017 -0.0016
205 1 -1.8750 -9.3750 1.8750 0.000086 -0.000019 0.000010 -0.0022 0.0042 -0.0012
206 1 -1.8750 -9.3750 5.6249 -0.000092 0.000035 -0.000137 0.0080 -0.0024 0.0069
207 1 -1.8750 -9.3750 9.3751 -0.000048 0.000079 0.000115 0.0011 -0.0053 -0.0075
208 1 -1.8750 -9.3750 13.1250 0.000062 -0.000052 -0.000063 -0.0028 0.0029 0.0047
209 1 -1.8751 -5.6250 -13.1250 -0.000132 -0.000027 0.000006 0.0005 0.0018 0.0014
210 1 -1.8750 -5.6249 -9.3749 0.000013 0.000114 0.000138 -0.0023 -0.0062 -0.0035
211 1 -1.8750 -5.6250 -5.6250 0.000070 0.000040 0.000040 -0.0036 -0.0006 0.0019
212 1 -1.8750 -5.6250 -1.8750 -0.000066 0.000039 0.000044 0.0003 -0.0028 0.0002
213 1 -1.8749 -5.6250 1.8750 0.000113 0.000049 0.000061 0.0006 -0.0010 -0.0011
214 1 -1.8750 -5.6250 5.6250 0.000067 0.000037 -0.000013 -0.0076 -0.0039 0.0048
215 1 -1.8750 -5.6250 9.3751 -0.000021 -0.000078 0.000160 0.0057 0.0039 -0.0066
216 1 -1.8750 -5.6250 13.1250 0.000080 0.000070 -0.000059 -0.0041 -0.0018 0.0049
217 1 -1.8749 -1.8750 -13.1250 0.000121 -0.000001 -0.000029 -0.0074 -0.0023 -0.0002
218 1 -1.8749 -1.8750 -9.3750 0.000101 -0.000089 -0.000053 -0.0017 0.0016 0.0002
219 1 -1.8751 -1.8750 -5.6250 -0.000102 -0.000012 -0.000052 0.0048 0.0032 0.0019
220 1 -1.8751 -1.8750 -1.8750 -0.000125 -0.000026 0.000080 0.0071 0.0036 -0.0043
221 1 -1.8750 -1.8750 1.8750 -0.000012 0.000058 -0.000055 0.0014 0.0017 0.0018
222 1 -1.8749 -1.8751 5.6250 0.000107 -0.000184 -0.000090 -0.0023 0.0029 -0.0018
223 1 -1.8750 -1.8750 9.3749 0.000027 -0.000004 -0.000189 -0.0044 -0.0006 0.0042
224 1 -1.8750 -1.8750 13.1250 0.000041 0.000069 -0.000008 -0.0007 0.0006 -0.0036
225 1 -1.8750 1.8749 -13.1250 -0.000078 -0.000118 0.000022 -0.0097 -0.0019 0.0048
226 1 -1.8749 1.8749 -9.3750 0.000157 -0.000181 0.000061 -0.0057 0.0038 -0.0001
227 1 -1.8750 1.8751 -5.6250 0.000062 0.000109 0.000072 -0.0106 -0.0087 -0.0065
228 1 -1.8750 1.8751 -1.8750 -0.000048 0.000120 0.000015 -0.0330 -0.0226 -0.0063
229 1 -1.8749 1.8751 1.8750 0.000121 0.000130 -0.000075 -0.0538 -0.0274 0.0039
230 1 -1.8750 1.8749 5.6250 -0.000098 -0.000188 0.000065 -0.0441 -0.0196 -0.0023
231 1 -1.8751 1.8750 9.3750 -0.000114 0.000031 0.000064 -0.0450 -0.0247 -0.0021
232 1 -1.8750 1.8750 13.1250 -0.000089 0.000075 -0.000079 -0.0317 -0.0203 0.0100
233 1 -1.8750 5.6250 -13.1250 0.000009 -0.000006 -0.000092 -0.0705 -0.0252 0.0125
234 1 -1.8751 5.6250 -9.3750 -0.000143 -0.000025 -0.000055 -0.0460 -0.0282 -0.0017
235 1 -1.8750 5.6250 -5.6250 0.000059 0.000034 -0.000080 -0.0759 -0.0208 -0.0104
236 1 -1.8749 5.6250 -1.8750 0.000116 -0.000005 0.000017 -0.1277 -0.0226 -0.0145
237 1 -1.8750 5.6250 1.8750 -0.000089 -0.000038 -0.000022 -0.1494 -0.0222 0.0017
238 1 -1.8750 5.6250 5.6250 -0.000023 0.000076 0.000035 -0.1541 -0.0318 -0.0022
239 1 -1.8750 5.6250 9.3750 -0.000057 -0.000001 -0.000027 -0.1513 -0.0228 -0.0000
240 1 -1.8750 5.6250 13.1250 0.000003 -0.000080 -0.000084 -0.1290 -0.0191 0.0123
241 1 -1.8750 9.3750 -13.1250 -0.000081 0.000025 0.000094 -0.1623 -0.0223 0.0041
242 1 -1.8750 9.3749 -9.3750 -0.000091 -0.000110 0.000061 -0.1499 -0.0184 -0.0001
243 1 -1.8750 9.3750 -5.6250 0.000024 0.000095 0.000003 -0.1664 -0.0198 -0.0056
244 1 -1.8750 9.3750 -1.8750 0.000050 -0.000067 -0.000060 -0.1964 -0.0010 -0.0036
245 1 -1.8750 9.3749 1.8750 -0.000011 -0.000113 0.000003 -0.1936 0.0012 -0.0008
246 1 -1.8749 9.3749 5.6250 0.000109 -0.000121 0.000034 -0.2052 0.0059 -0.0040
247 1 -1.8750 9.3750 9.3749 -0.000090 0.000008 -0.000158 -0.1995 -0.0000 0.0058
248 1 -1.8750 9.3750 13.1250 -0.000039 0.000033 0.000007 -0.1890 -0.0076 0.0046
249 1 -1.8749 13.1249 -13.1250 0.000102 -0.000194 -0.000089 -0.1555 0.0302 0.0029
250 1 -1.8750 13.1251 -9.3750 0.000002 0.000126 -0.000003 -0.1544 0.0188 -0.0024
251 1 -1.8750 13.1250 -5.6250 -0.000044 0.000015 -0.000049 -0.1511 0.0230 -0.0013
252 1 -1.8750 13.1251 -1.8751 0.000054 0.000148 -0.000153 -0.1577 0.0169 0.0035
253 1 -1.8750 13.1249 1.8750 0.000072 -0.000102 -0.000025 -0.1542 0.0277 0.0007
254 1 -1.8751 13.1250 5.6251 -0.000101 0.000020 0.000158 -0.1490 0.0193 -0.0056
255 1 -1.8750 13.1250 9.3750 0.000014 0.000004 0.000005 -0.1529 0.0221 0.0034
256 1 -1.8750 13.1250 13.1250 0.000079 0.000048 0.000013 -0.1569 0.0231 -0.0018
257 1 1.8751 -13.1250 -13.1250 0.000143 -0.000038 0.000087 -0.7788 0.5919 -0.0023
258 1 1.8750 -13.1250 -9.3750 0.000083 0.000005 -0.000020 -0.7752 0.5981 0.0005
259 1 1.8750 -13.1250 -5.6250 -0.000018 0.000068 -0.000098 -0.7752 0.5898 0.0026
260 1 1.8749 -13.1251 -1.8750 -0.000112 -0.000125 -0.000018 -0.7640 0.6001 -0.0009
261 1 1.8750 -13.1250 1.8750 -0.000084 -0.000016 0.000029 -0.7686 0.5980 -0.0003
262 1 1.8751 -13.1250 5.6250 0.000103 -0.000096 0.000060 -0.7787 0.5970 -0.0016
263 1 1.8751 -13.1249 9.3750 0.000163 0.000119 -0.000009 -0.7790 0.5901 0.0025
264 1 1.8750 -13.1250 13.1250 -0.000099 -0.000028 0.000054 -0.7675 0.5982 -0.0000
265 1 1.8751 -9.3751 -13.1250 0.000177 -0.000243 0.000096 -0.2264 0.0554 -0.0046
266 1 1.8749 -9.3749 -9.3751 -0.000130 0.000129 -0.000144 -0.2191 0.0415 0.0054
267 1 1.8750 -9.3750 -5.6250 0.000023 -0.000036 -0.000067 -0.2260 0.0489 -0.0004
268 1 1.8750 -9.3750 -1.8750 0.000002 0.000058 0.000003 -0.2226 0.0415 -0.0012
269 1 1.8750 -9.3749 1.8750 -0.000006 0.000151 0.000007 -0.2233 0.0421 -0.0020
270 1 1.8751 -9.3750 5.6249 0.000201 0.000075 -0.000103 -0.2316 0.0436 0.0038
271 1 1.8750 -9.3751 9.3750 -0.000002 -0.000101 0.000008 -0.2270 0.0529 -0.0010
272 1 1.8749 -9.3749 13.1250 -0.000111 0.000190 0.000060 -0.2184 0.0394 -0.0003
273 1 1.8750 -5.6250 -13.1250 -0.000087 0.000065 -0.000083 -0.2015 -0.0100 0.0036
274 1 1.8750 -5.6251 -9.3751 -0.000071 -0.000109 -0.000111 -0.1968 0.0056 0.0026
275 1 1.8750 -5.6250 -5.6250 -0.000041 -0.000029 0.000030 -0.1979 0.0014 -0.0019
276 1 1.8750 -5.6250 -1.8750 -0.000029 -0.000084 0.000067 -0.1977 0.0046 -0.0016
277 1 1.8751 -5.6250 1.8750 0.000121 -0.000003 -0.000006 -0.2050 0.0030 -0.0007
278 1 1.8749 -5.6250 5.6249 -0.000257 0.000029 -0.000125 -0.1929 0.0014 0.0032
279 1 1.8751 -5.6250 9.3750 0.000224 0.000018 -0.000041 -0.2088 -0.0013 0.0019
280 1 1.8750 -5.6250 13.1251 0.000002 -0.000093 0.000171 -0.1968 0.0065 -0.0078
281 1 1.8750 -1.8751 -13.1250 -0.000024 -0.000206 0.000026 -0.2022 -0.0035 0.0007
282 1 1.8751 -1.8750 -9.3751 0.000115 -0.000013 -0.000167 -0.2032 0.0000 0.0055
283 1 1.8751 -1.8750 -5.6250 0.000148 0.000061 -0.000018 -0.2154 -0.0135 -0.0116
284 1 1.8750 -1.8750 -1.8751 0.000036 0.000036 -0.000168 -0.2202 -0.0386 -0.0006
285 1 1.8750 -1.8750 1.8750 -0.000035 0.000007 0.000008 -0.2260 -0.0499 -0.0043
286 1 1.8751 -1.8750 5.6250 0.000107 0.000045 -0.000056 -0.2275 -0.0505 0.0011
287 1 1.8750 -1.8750 9.3750 -0.000067 0.000062 -0.000064 -0.2174 -0.0487 -0.0000
288 1 1.8749 -1.8750 13.1250 -0.000124 0.000011 -0.000070 -0.2140 -0.0390 0.0074
289 1 1.8750 1.8750 -13.1250 -0.000095 0.000012 0.000015 -0.3156 -0.1427 0.0981
290 1 1.8750 1.8750 -9.3750 -0.000066 0.000068 -0.000000 -0.2316 -0.0602 -0.0020
291 1 1.8751 1.8750 -5.6251 0.000160 0.000033 -0.000134 -0.3208 -0.1412 -0.0971
292 1 1.8750 1.8750 -1.8751 0.000039 -0.000006 -0.000111 -0.6771 -0.5016 -0.0984
293 1 1.8750 1.8749 1.8750 -0.000067 -0.000114 -0.000019 -0.7631 -0.5844 -0.0125
294 1 1.8750 1.8749 5.6250 0.000056 -0.000125 0.000030 -0.7723 -0.5909 -0.0013
295 1 1.8749 1.8750 9.3750 -0.000129 0.000019 0.000014 -0.7636 -0.5875 0.0110
296 1 1.8750 1.8750 13.1250 -0.000027 -0.000069 -0.000027 -0.6770 -0.5022 0.1003
297 1 1.8750 5.6251 -13.1251 0.000004 0.000104 -0.000128 -1.1468 -0.5982 0.3955
298 1 1.8749 5.6250 -9.3750 -0.000134 0.000064 0.000083 -0.7943 -0.5964 -0.0034
299 1 1.8749 5.6250 -5.6250 -0.000109 -0.000027 0.000092 -1.1410 -0.5941 -0.3842
300 1 1.8751 5.6250 -1.8749 0.000198 -0.000024 0.000100 5.9995 -0.5914 -0.3861
301 1 1.8750 5.6250 1.8750 0.000057 0.000056 0.000043 5.6360 -0.6004 -0.0227
302 1 1.8750 5.6250 5.6250 -0.000053 -0.000043 0.000054 5.6269 -0.5988 0.0012
303 1 1.8750 5.6250 9.3751 0.000010 0.000060 0.000123 5.6379 -0.5964 0.0253
304 1 1.8750 5.6249 13.1251 0.000025 -0.000148 0.000238 5.9998 -0.5919 0.3775
305 1 1.8750 9.3750 -13.1250 0.000028 0.000006 0.000063 5.5552 -0.4530 0.0940
306 1 1.8750 9.3750 -9.3750 -0.000034 -0.000012 0.000008 5.6377 -0.5333 -0.0037
307 1 1.8750 9.3750 -5.6251 -0.000042 -0.000016 -0.000240 5.5586 -0.4575 -0.0907
308 1 1.8749 9.3751 -1.8750 -0.000211 0.000165 0.000017 5.1996 -0.0992 -0.1017
309 1 1.8751 9.3750 1.8751 0.000154 -0.000077 0.000133 5.1061 -0.0025 -0.0160
310 1 1.8750 9.3749 5.6250 0.000073 -0.000150 -0.000007 5.1035 0.0019 0.0033
311 1 1.8749 9.3750 9.3750 -0.000160 0.000008 0.000045 5.1091 -0.0042 0.0070
312 1 1.8750 9.3750 13.1249 0.000061 -0.000021 -0.000166 5.1945 -0.0966 0.1066
313 1 1.8750 13.1250 -13.1250 0.000048 -0.000012 0.000045 5.6457 0.5595 0.0015
314 1 1.8750 13.1250 -9.3750 0.000023 0.000056 0.000020 5.6501 0.5458 -0.0006
315 1 1.8750 13.1249 -5.6250 -0.000008 -0.000145 -0.000042 5.6439 0.5652 -0.0026
316 1 1.8750 13.1250 -1.8750 -0.000053 -0.000010 0.000056 5.6346 0.5846 -0.0078
317 1 1.8750 13.1250 1.8750 0.000091 -0.000021 0.000028 5.6267 0.5944 0.0019
318 1 1.8751 13.1249 5.6251 0.000170 -0.000136 0.000108 5.6222 0.5951 -0.0052
319 1 1.8750 13.1250 9.3750 -0.000079 0.000031 -0.000099 5.6280 0.5967 0.0021
320 1 1.8750 13.1250 13.1249 0.000004 -0.000067 -0.000170 5.6340 0.5847 0.0106
321 1 5.6250 -13.1251 -13.1250 -0.000076 -0.000231 0.000013 5.0589 -6.2900 -0.0021
322 1 5.6250 -13.1249 -9.3750 -0.000040 0.000193 -0.000023 5.0576 -6.2953 0.0026
323 1 5.6249 -13.1250 -5.6250 -0.000138 -0.000104 0.000089 5.0572 -6.2894 -0.0018
324 1 5.6251 -13.1250 -1.8750 0.000151 -0.000054 0.000083 5.0511 -6.2909 -0.0024
325 1 5.6250 -13.1250 1.8750 -0.000004 0.000082 -0.000072 5.0539 -6.2943 0.0063
326 1 5.6249 -13.1250 5.6251 -0.000180 0.000044 0.000116 5.0600 -6.2943 -0.0041
327 1 5.6250 -13.1250 9.3750 -0.000030 -0.000086 0.000064 5.0590 -6.2936 -0.0014
328 1 5.6250 -13.1250 13.1250 0.000087 0.000036 -0.000070 5.0523 -6.2945 0.0037
329 1 5.6251 -9.3750 -13.1251 0.000181 -0.000027 -0.000123 5.0560 0.1001 0.0052
330 1 5.6251 -9.3750 -9.3750 0.000111 0.000011 0.000006 5.0512 0.1084 -0.0038
331 1 5.6249 -9.3749 -5.6250 -0.000193 0.000113 -0.000068 5.0585 0.1019 -0.0009
332 1 5.6251 -9.3750 -1.8751 0.000114 0.000055 -0.000169 5.0536 0.1000 0.0034
333 1 5.6250 -9.3750 1.8750 -0.000023 -0.000010 -0.000048 5.0555 0.1076 -0.0024
334 1 5.6250 -9.3750 5.6250 0.000038 -0.000048 -0.000060 5.0588 0.1078 0.0004
335 1 5.6250 -9.3750 9.3750 -0.000069 -0.000095 -0.000033 5.0562 0.1099 0.0009
336 1 5.6250 -9.3750 13.1250 0.000070 -0.000073 0.000061 5.0520 0.1113 -0.0050
337 1 5.6250 -5.6251 -13.1249 -0.000055 -0.000152 0.000114 5.0540 0.0036 -0.0004
338 1 5.6250 -5.6250 -9.3749 0.000064 -0.000031 0.000132 5.0531 0.0003 -0.0002
339 1 5.6250 -5.6250 -5.6249 0.000013 0.000087 0.000117 5.0545 -0.0011 -0.0001
340 1 5.6251 -5.6251 -1.8750 0.000184 -0.000166 0.000083 5.0520 0.0075 -0.0038
341 1 5.6249 -5.6250 1.8749 -0.000149 -0.000008 -0.000177 5.0597 -0.0014 0.0082
342 1 5.6250 -5.6250 5.6250 -0.000059 -0.000031 0.000043 5.0516 0.0001 -0.0019
343 1 5.6250 -5.6249 9.3751 -0.000038 0.000115 0.000135 5.0599 -0.0058 -0.0027
344 1 5.6251 -5.6249 13.1250 0.000130 0.000120 0.000044 5.0535 -0.0064 0.0030
345 1 5.6250 -1.8750 -13.1250 0.000065 -0.000042 -0.000002 5.0540 -0.0260 0.0147
346 1 5.6250 -1.8750 -9.3749 -0.000032 -0.000059 0.000220 5.0579 0.0010 -0.0037
347 1 5.6249 -1.8750 -5.6249 -0.000102 -0.000027 0.000190 5.0594 -0.0215 -0.0135
348 1 5.6250 -1.8750 -1.8750 0.000106 0.000052 0.000062 5.0543 -0.0842 -0.0083
349 1 5.6249 -1.8750 1.8751 -0.000126 -0.000091 0.000126 5.0567 -0.1025 -0.0063
350 1 5.6249 -1.8750 5.6249 -0.000100 0.000001 -0.000190 5.0585 -0.1049 0.0081
351 1 5.6251 -1.8750 9.3750 0.000240 -0.000006 -0.000025 5.0508 -0.1028 -0.0042
352 1 5.6250 -1.8750 13.1250 -0.000014 -0.000060 -0.000072 5.0527 -0.0774 0.0138
353 1 5.6250 1.8750 -13.1250 0.000016 -0.000050 0.000035 5.0533 -0.4764 0.3836
354 1 5.6250 1.8750 -9.3750 -0.000028 -0.000027 -0.000082 5.0545 -0.1262 0.0057
355 1 5.6250 1.8750 -5.6249 0.000050 0.000005 0.000140 5.0574 -0.4787 -0.3882
356 1 5.6251 1.8751 -1.8749 0.000233 0.000137 0.000168 5.0524 6.6650 -0.3905
357 1 5.6250 1.8750 1.8749 -0.000060 0.000040 -0.000106 5.0547 6.3025 -0.0148
358 1 5.6251 1.8750 5.6251 0.000180 0.000087 0.000135 5.0538 6.2916 -0.0040
359 1 5.6250 1.8750 9.3751 0.000034 0.000052 0.000136 5.0519 6.3039 0.0228
360 1 5.6251 1.8750 13.1250 0.000128 0.000018 0.000054 5.0529 6.6649 0.3867
361 1 5.6250 5.6250 -13.1250 -0.000084 0.000106 -0.000090 5.0568 6.2900 -7.0830
362 1 5.6250 5.6251 -9.3749 -0.000002 0.000219 0.000163 5.0530 6.2889 -0.0109
363 1 5.6250 5.6250 -5.6251 0.000000 0.000078 -0.000194 5.0533 6.2915 7.0935
ITEM: TIMESTEP
10
ITEM: NUMBER OF ATOMS
363
ITEM: BOX BOUNDS pp pp pp
-15.000000 15.000000
-15.000000 15.000000
-15.000000 15.000000
ITEM: ATOMS id type xu yu zu vx vy vz fx fy fz
1 1 -13.1258 -13.1254 -13.1248 -0.000231 -0.000078 0.000041 -5.0574 -0.0156 -0.0284
2 1 -13.1261 -13.1250 -9.3747 -0.000286 -0.000008 0.000058 -5.0027 0.0178 -0.0465
3 1 -13.1255 -13.1240 -5.6259 -0.000179 0.000189 -0.000164 -5.0501 -0.0854 0.0826
4 1 -13.1253 -13.1247 -1.8747 -0.000144 0.000055 0.000053 -5.0648 -0.0138 -0.0242
5 1 -13.1245 -13.1254 1.8759 -0.000000 -0.000073 0.000155 -5.0730 0.0122 -0.0359
6 1 -13.1261 -13.1253 5.6252 -0.000279 -0.000051 0.000043 -4.9984 -0.0207 0.0203