LAMMPS (16 Mar 2018)

units		real
atom_style	atomic

pair_style	lj/cut 10

read_data          lammps.data
  orthogonal box = (-15 -15 -15) to (15 15 15)
  1 by 1 by 1 MPI processor grid
  reading atoms ...
  362 atoms
  reading velocities ...
  362 velocities

mass		    1 16.04
pair_coeff	    1 1 0.2941062068 3.730

neighbor	    4 bin
neigh_modify	every 1 delay 0

fix		        1 all nve

dump 		    dump2 all custom 100 trj.lammps id type xu yu zu vx vy vz fx fy fz
dump_modify	    dump2 sort 1
dump_modify     dump2 append yes
dump_modify     dump2 format line "%8d %5d %.3f %.3f %.3f %.3e %.3e %.3e %.3e %.3e %.3e"

thermo		    100
thermo_style    custom step temp press ke pe etotal

timestep	    1
run		        10000
Neighbor list info ...
  update every 1 steps, delay 0 steps, check yes
  max neighbors/atom: 2000, page size: 100000
  master list distance cutoff = 14
  ghost atom cutoff = 14
  binsize = 7, bins = 5 5 5
  1 neighbor lists, perpetual/occasional/extra = 1 0 0
  (1) pair lj/cut, perpetual
      attributes: half, newton on
      pair build: half/bin/atomonly/newton
      stencil: half/bin/3d/newton
      bin: standard
Per MPI rank memory allocation (min/avg/max) = 4.154 | 4.154 | 4.154 Mbytes
Step Temp Press KinEng PotEng TotEng 
       0    150.41329    4155.5506     161.8556   -388.57739   -226.72179 
     100    130.71935    4173.8327    140.66349   -367.40956   -226.74608 
     200    218.86905    2695.0981    235.51895   -461.49687   -225.97792 
     300     268.9369    1650.9377    289.39559   -513.42508   -224.02949 
     400    262.52878    1251.1159    282.49998   -505.13482   -222.63485 
     500    257.99684    838.70291    277.62328   -499.60053   -221.97725 
     600    250.23301    572.21057    269.26884   -490.61145   -221.34261 
     700    235.21635    545.18076    253.10983   -474.04121   -220.93138 
     800    233.46145    459.05531    251.22143   -471.82521   -220.60378 
     900    226.76301    562.46718    244.01343   -464.56042   -220.54699 
    1000    220.05716    650.37734    236.79744   -457.37257   -220.57513 
    1100    211.83929    756.11433    227.95442   -448.32391   -220.36949 
    1200    215.30992    710.20125    231.68907   -452.12282   -220.43375 
    1300     218.0775    696.49766    234.66718   -455.18882   -220.52164 
    1400    216.57545     689.1281    233.05087   -453.72414   -220.67327 
    1500    219.29846    644.30797    235.98102   -456.62177   -220.64075 
    1600    220.08557    705.69469    236.82801   -457.48885   -220.66084 
    1700    217.85855    750.11172    234.43158   -455.01093   -220.57936 
    1800     219.1532    687.04312    235.82472   -456.36195   -220.53723 
    1900    217.11568     697.1577    233.63219   -454.35867   -220.72648 
    2000    219.39543    721.30249    236.08538    -456.9644   -220.87903 
    2100    218.52565    761.13988    235.14943   -456.02851   -220.87908 
    2200    214.76461    779.36131    231.10227   -452.03833   -220.93606 
    2300    213.52272    798.18614    229.76591   -450.53437   -220.76846 
    2400    212.15421    806.87979     228.2933   -449.13101   -220.83771 
    2500    211.07539    804.31151     227.1324    -448.0574     -220.925 
    2600    218.69192     703.1161    235.32835    -456.1819   -220.85355 
    2700    211.34813    829.02241    227.42589   -448.20346   -220.77756 
    2800    219.05828    706.96057    235.72257   -456.52841   -220.80584 
    2900      219.715     686.3743    236.42925   -457.03877   -220.60953 
    3000    217.69952    708.54455    234.26045   -454.96559   -220.70514 
    3100    218.90405    695.24805    235.55661   -456.30558   -220.74897 
    3200    218.60195    722.70052    235.23153   -455.99064   -220.75911 
    3300    212.54878    845.88317    228.71789   -449.46684   -220.74896 
    3400    210.79414    867.82858    226.82976   -447.59507   -220.76531 
    3500    219.14113     717.4898    235.81173   -456.50732   -220.69559 
    3600    218.72907    697.40317    235.36832    -456.1266   -220.75828 
    3700    208.40618    876.46072    224.26014   -445.06683   -220.80669 
    3800     209.1249    878.80516    225.03354   -445.74469   -220.71114 
    3900    225.81953    621.38974    242.99817   -463.80413   -220.80596 
    4000    226.70426    619.04254     243.9502   -464.69014   -220.73993 
    4100     210.5177    906.42046    226.53229   -447.24297   -220.71068 
    4200    214.67717    846.20591    231.00819   -451.70377   -220.69558 
    4300    215.82868    782.43552    232.24729   -452.96175   -220.71445 
    4400    215.31015     784.3908    231.68931   -452.38765   -220.69834 
    4500    218.55875    759.11319    235.18505   -455.82679   -220.64174 
    4600     208.1673    893.05778    224.00309   -444.51687   -220.51378 
    4700    226.36751     611.2052    243.58784   -464.16621   -220.57837 
    4800    225.75272    596.07987    242.92628   -463.50432   -220.57805 
    4900    221.97554    655.26865    238.86176   -459.47148   -220.60972 
    5000    224.38077    644.06636    241.44996   -462.19652   -220.74656 
    5100    210.35563    842.84932    226.35789   -447.15102   -220.79312 
    5200      218.654    724.30751    235.28754   -456.04024    -220.7527 
    5300      212.886    795.92525    229.08076   -449.79782   -220.71707 
    5400     224.1144    673.68161    241.16332   -461.84083   -220.67751 
    5500    217.44566    766.24195    233.98728   -454.61452   -220.62724 
    5600     218.5978      755.527    235.22706   -455.89267   -220.66561 
    5700    221.11843    705.31985    237.93945   -458.68614    -220.7467 
    5800    214.68308    737.71494    231.01454   -451.84821   -220.83366 
    5900    218.64864    672.01214    235.28177   -456.18256   -220.90079 
    6000    217.25053    693.97163    233.77731    -454.5397   -220.76239 
    6100    220.81179    661.75125    237.60948   -458.38772   -220.77824 
    6200    217.77576    723.28788    234.34249   -455.27896   -220.93647 
    6300    224.10188    626.40278    241.14986   -461.99093   -220.84107 
    6400    219.64102    720.49647    236.34965   -457.16559   -220.81594 
    6500    208.70939    900.75621    224.58642   -445.42311   -220.83668 
    6600    215.56392    797.53607    231.96239   -452.70343   -220.74104 
    6700      211.121    801.70246    227.18148   -447.80467   -220.62319 
    6800    218.51094    699.51636     235.1336   -455.70642   -220.57282 
    6900    222.68681     625.4442    239.62714   -460.25919   -220.63205 
    7000    209.34177    803.08549    225.26691    -445.9096   -220.64269 
    7100    221.95523    626.06395     238.8399   -459.40605   -220.56615 
    7200    219.32258    695.65116    236.00698   -456.53286   -220.52588 
    7300     222.8245    646.17706     239.7753   -460.47762   -220.70232 
    7400    209.24066    824.24527     225.1581   -445.83764   -220.67954 
    7500    221.94957    668.83711    238.83381   -459.58237   -220.74856 
    7600    222.06497    680.14352      238.958   -459.64106   -220.68306 
    7700    217.41169    754.00858    233.95072   -454.72546   -220.77474 
    7800    218.05728    717.33985    234.64543   -455.31946   -220.67403 
    7900    221.98929    622.73377    238.87655    -459.6473   -220.77074 
    8000    216.42309    671.47048    232.88692   -453.69593   -220.80901 
    8100    223.36107    601.73591    240.35269   -461.09865   -220.74596 
    8200    218.96177    691.23991    235.61872   -456.24437   -220.62565 
    8300    221.52489    651.44207    238.37683   -459.10619   -220.72936 
    8400    212.24848    787.38929    228.39474   -449.08399   -220.68925 
    8500    212.28889    776.85265    228.43822   -449.22197   -220.78375 
    8600    218.46925    728.65647    235.08874   -455.97067   -220.88193 
    8700    212.16937     832.1479    228.30961   -449.05898   -220.74937 
    8800    221.33592      721.092    238.17348   -458.96681   -220.79333 
    8900    212.27996    851.31903    228.42861   -449.13972   -220.71111 
    9000    225.76569    591.20459    242.94023   -463.57177   -220.63154 
    9100     221.5027    652.06749    238.35295   -459.01261   -220.65966 
    9200    216.81954    760.08147    233.31353   -453.89153     -220.578 
    9300    214.91275    784.30124    231.26168   -451.76067   -220.49899 
    9400    209.33965    855.31711    225.26463   -445.76768   -220.50305 
    9500    218.97313    682.21945    235.63095   -456.15893   -220.52799 
    9600    218.36173    647.53673    234.97303   -455.57572   -220.60269 
    9700    221.45301    618.36593    238.29948   -458.87154   -220.57206 
    9800    217.39575    710.11664    233.93358   -454.45246   -220.51888 
    9900    212.68144    775.82984    228.86063   -449.55859   -220.69795 
   10000    219.23632    669.58015    235.91416    -456.6375   -220.72335 
Loop time of 2.42851 on 1 procs for 10000 steps with 362 atoms

Performance: 355.773 ns/day, 0.067 hours/ns, 4117.744 timesteps/s
99.9% CPU use with 1 MPI tasks x no OpenMP threads

MPI task timing breakdown:
Section |  min time  |  avg time  |  max time  |%varavg| %total
---------------------------------------------------------------
Pair    | 2.167      | 2.167      | 2.167      |   0.0 | 89.23
Neigh   | 0.03699    | 0.03699    | 0.03699    |   0.0 |  1.52
Comm    | 0.084414   | 0.084414   | 0.084414   |   0.0 |  3.48
Output  | 0.081337   | 0.081337   | 0.081337   |   0.0 |  3.35
Modify  | 0.033163   | 0.033163   | 0.033163   |   0.0 |  1.37
Other   |            | 0.02559    |            |       |  1.05

Nlocal:    362 ave 362 max 362 min
Histogram: 1 0 0 0 0 0 0 0 0 0
Nghost:    2276 ave 2276 max 2276 min
Histogram: 1 0 0 0 0 0 0 0 0 0
Neighs:    27672 ave 27672 max 27672 min
Histogram: 1 0 0 0 0 0 0 0 0 0

Total # of neighbors = 27672
Ave neighs/atom = 76.442
Neighbor list builds = 59
Dangerous builds = 0

Total wall time: 0:00:02
